# vtk DataFile Version 3.0
Output from R2
ASCII
DATASET UNSTRUCTURED_GRID
POINTS       7930 double
    -4.84000     0.00000   0.
     0.00000     0.00000   0.
     1.00000    -0.02000   0.
     2.00000     0.06000   0.
     2.99000     0.18000   0.
     3.98000     0.34000   0.
     4.96000     0.50000   0.
     5.95000     0.66000   0.
     6.94000     0.82000   0.
     7.93000     0.98000   0.
     8.92000     1.11000   0.
     9.89000     1.34000   0.
    10.88000     1.51000   0.
    11.86000     1.68000   0.
    12.84000     1.91000   0.
    13.82000     2.07000   0.
    14.80000     2.27000   0.
    15.78000     2.47000   0.
    16.77000     2.61000   0.
    17.76000     2.77000   0.
    18.73000     3.02000   0.
    19.72000     3.12000   0.
    20.70000     3.32000   0.
    21.69000     3.51000   0.
    22.67000     3.66000   0.
    23.67000     3.76000   0.
    24.64000     3.99000   0.
    25.64000     4.07000   0.
    26.59000     4.39000   0.
    27.55000     4.65000   0.
    28.53000     4.88000   0.
    29.52000     4.98000   0.
    30.48000     5.26000   0.
    31.47000     5.43000   0.
    32.46000     5.58000   0.
    33.44000     5.75000   0.
    34.42000     5.93000   0.
    35.39000     6.20000   0.
    36.38000     6.32000   0.
    37.34000     6.58000   0.
    38.33000     6.75000   0.
    39.29000     7.04000   0.
    40.26000     7.25000   0.
    41.23000     7.51000   0.
    42.20000     7.74000   0.
    43.16000     8.05000   0.
    44.10000     8.37000   0.
    45.05000     8.70000   0.
    46.04000     8.78000   0.
    47.02000     8.98000   0.
    48.00000     9.17000   0.
    48.93000     9.56000   0.
    49.90000     9.80000   0.
    50.89000     9.88000   0.
    51.82000    10.26000   0.
    52.76000    10.59000   0.
    53.73000    10.85000   0.
    54.61000    11.32000   0.
    55.50000    11.78000   0.
    56.42000    12.18000   0.
    57.30000    12.65000   0.
    58.19000    13.11000   0.
    59.17000    13.29000   0.
    60.17000    13.35000   0.
    60.97000    13.94000   0.
    65.81000    13.94000   0.
    -4.84000   -27.11000   0.
     0.00000   -27.11000   0.
     1.00000   -27.12000   0.
     2.00000   -27.05000   0.
     2.99000   -26.93000   0.
     3.98000   -26.77000   0.
     4.96000   -26.61000   0.
     5.95000   -26.45000   0.
     6.94000   -26.29000   0.
     7.93000   -26.13000   0.
     8.92000   -26.00000   0.
     9.89000   -25.77000   0.
    10.88000   -25.60000   0.
    11.86000   -25.43000   0.
    12.84000   -25.20000   0.
    13.82000   -25.04000   0.
    14.80000   -24.84000   0.
    15.78000   -24.64000   0.
    16.77000   -24.50000   0.
    17.76000   -24.33000   0.
    18.73000   -24.09000   0.
    19.72000   -23.98000   0.
    20.70000   -23.79000   0.
    21.69000   -23.60000   0.
    22.67000   -23.45000   0.
    23.67000   -23.34000   0.
    24.64000   -23.12000   0.
    25.64000   -23.04000   0.
    26.59000   -22.72000   0.
    27.55000   -22.46000   0.
    28.53000   -22.23000   0.
    29.52000   -22.12000   0.
    30.48000   -21.85000   0.
    31.47000   -21.68000   0.
    32.46000   -21.53000   0.
    33.44000   -21.36000   0.
    34.42000   -21.18000   0.
    35.39000   -20.91000   0.
    36.38000   -20.78000   0.
    37.34000   -20.52000   0.
    38.33000   -20.36000   0.
    39.29000   -20.07000   0.
    40.26000   -19.85000   0.
    41.23000   -19.59000   0.
    42.20000   -19.37000   0.
    43.16000   -19.06000   0.
    44.10000   -18.74000   0.
    45.05000   -18.41000   0.
    46.04000   -18.33000   0.
    47.02000   -18.13000   0.
    48.00000   -17.93000   0.
    48.93000   -17.55000   0.
    49.90000   -17.31000   0.
    50.89000   -17.23000   0.
    51.82000   -16.85000   0.
    52.76000   -16.52000   0.
    53.73000   -16.26000   0.
    54.61000   -15.78000   0.
    55.50000   -15.33000   0.
    56.42000   -14.93000   0.
    57.30000   -14.46000   0.
    58.19000   -14.00000   0.
    59.17000   -13.82000   0.
    60.17000   -13.76000   0.
    60.97000   -13.16000   0.
    65.81000   -13.16000   0.
  -309.70000     0.00000   0.
  -309.70000  -210.03000   0.
   370.67000    13.94000   0.
   370.67000  -210.03000   0.
    -4.40000     0.00000   0.
    -3.96000     0.00000   0.
    -3.52000     0.00000   0.
    -3.08000     0.00000   0.
    -2.64000     0.00000   0.
    -2.20000     0.00000   0.
    -1.76000     0.00000   0.
    -1.32000     0.00000   0.
    -0.88000     0.00000   0.
    -0.44000     0.00000   0.
     0.33300    -0.00700   0.
     0.66700    -0.01300   0.
     1.33300     0.00700   0.
     1.66700     0.03300   0.
     2.33000     0.10000   0.
     2.66000     0.14000   0.
     3.32000     0.23300   0.
     3.65000     0.28700   0.
     4.30700     0.39300   0.
     4.63300     0.44700   0.
     5.29000     0.55300   0.
     5.62000     0.60700   0.
     6.28000     0.71300   0.
     6.61000     0.76700   0.
     7.27000     0.87300   0.
     7.60000     0.92700   0.
     8.26000     1.02300   0.
     8.59000     1.06700   0.
     9.24300     1.18700   0.
     9.56700     1.26300   0.
    10.22000     1.39700   0.
    10.55000     1.45300   0.
    11.20700     1.56700   0.
    11.53300     1.62300   0.
    12.18700     1.75700   0.
    12.51300     1.83300   0.
    13.16700     1.96300   0.
    13.49300     2.01700   0.
    14.14700     2.13700   0.
    14.47300     2.20300   0.
    15.12700     2.33700   0.
    15.45300     2.40300   0.
    16.11000     2.51700   0.
    16.44000     2.56300   0.
    17.10000     2.66300   0.
    17.43000     2.71700   0.
    18.08300     2.85300   0.
    18.40700     2.93700   0.
    19.06000     3.05300   0.
    19.39000     3.08700   0.
    20.04700     3.18700   0.
    20.37300     3.25300   0.
    21.03000     3.38300   0.
    21.36000     3.44700   0.
    22.01700     3.56000   0.
    22.34300     3.61000   0.
    23.00300     3.69300   0.
    23.33700     3.72700   0.
    23.99300     3.83700   0.
    24.31700     3.91300   0.
    24.97300     4.01700   0.
    25.30700     4.04300   0.
    25.95700     4.17700   0.
    26.27300     4.28300   0.
    26.91000     4.47700   0.
    27.23000     4.56300   0.
    27.87700     4.72700   0.
    28.20300     4.80300   0.
    28.86000     4.91300   0.
    29.19000     4.94700   0.
    29.84000     5.07300   0.
    30.16000     5.16700   0.
    30.81000     5.31700   0.
    31.14000     5.37300   0.
    31.80000     5.48000   0.
    32.13000     5.53000   0.
    32.78700     5.63700   0.
    33.11300     5.69300   0.
    33.76700     5.81000   0.
    34.09300     5.87000   0.
    34.74300     6.02000   0.
    35.06700     6.11000   0.
    35.72000     6.24000   0.
    36.05000     6.28000   0.
    36.70000     6.40700   0.
    37.02000     6.49300   0.
    37.67000     6.63700   0.
    38.00000     6.69300   0.
    38.65000     6.84700   0.
    38.97000     6.94300   0.
    39.61300     7.11000   0.
    39.93700     7.18000   0.
    40.58300     7.33700   0.
    40.90700     7.42300   0.
    41.55300     7.58700   0.
    41.87700     7.66300   0.
    42.52000     7.84300   0.
    42.84000     7.94700   0.
    43.47300     8.15700   0.
    43.78700     8.26300   0.
    44.41700     8.48000   0.
    44.73300     8.59000   0.
    45.38000     8.72700   0.
    45.71000     8.75300   0.
    46.36700     8.84700   0.
    46.69300     8.91300   0.
    47.34700     9.04300   0.
    47.67300     9.10700   0.
    48.31000     9.30000   0.
    48.62000     9.43000   0.
    49.25300     9.64000   0.
    49.57700     9.72000   0.
    50.23000     9.82700   0.
    50.56000     9.85300   0.
    51.20000    10.00700   0.
    51.51000    10.13300   0.
    52.13300    10.37000   0.
    52.44700    10.48000   0.
    53.08300    10.67700   0.
    53.40700    10.76300   0.
    54.02300    11.00700   0.
    54.31700    11.16300   0.
    54.90700    11.47300   0.
    55.20300    11.62700   0.
    55.80700    11.91300   0.
    56.11300    12.04700   0.
    56.71300    12.33700   0.
    57.00700    12.49300   0.
    57.59700    12.80300   0.
    57.89300    12.95700   0.
    58.51700    13.17000   0.
    58.84300    13.23000   0.
    59.50300    13.31000   0.
    59.83700    13.33000   0.
    60.43700    13.54700   0.
    60.70300    13.74300   0.
    61.41000    13.94000   0.
    61.85000    13.94000   0.
    62.29000    13.94000   0.
    62.73000    13.94000   0.
    63.17000    13.94000   0.
    63.61000    13.94000   0.
    64.05000    13.94000   0.
    64.49000    13.94000   0.
    64.93000    13.94000   0.
    65.37000    13.94000   0.
    -3.22700   -27.11000   0.
    -1.61300   -27.11000   0.
    62.58300   -13.16000   0.
    64.19700   -13.16000   0.
    -4.84000    -0.44200   0.
    -4.84000    -0.90700   0.
    -4.84000    -1.39300   0.
    -4.84000    -1.90400   0.
    -4.84000    -2.44000   0.
    -4.84000    -3.00200   0.
    -4.84000    -3.59100   0.
    -4.84000    -4.21000   0.
    -4.84000    -4.85800   0.
    -4.84000    -5.53900   0.
    -4.84000    -6.25200   0.
    -4.84000    -7.00100   0.
    -4.84000    -7.78600   0.
    -4.84000    -8.61000   0.
    -4.84000    -9.47400   0.
    -4.84000   -10.38000   0.
    -4.84000   -11.33100   0.
    -4.84000   -12.32800   0.
    -4.84000   -13.37400   0.
    -4.84000   -14.47200   0.
    -4.84000   -15.62300   0.
    -4.84000   -16.83000   0.
    -4.84000   -18.09700   0.
    -4.84000   -19.42500   0.
    -4.84000   -20.81900   0.
    -4.84000   -22.28100   0.
    -4.84000   -23.81400   0.
    -4.84000   -25.42300   0.
    65.81000    13.49800   0.
    65.81000    13.03400   0.
    65.81000    12.54700   0.
    65.81000    12.03700   0.
    65.81000    11.50100   0.
[...]
POINT_DATA      7930
CELL_DATA     15554
SCALARS Resistivity(Ohm-m) double 1
LOOKUP_TABLE default
             0.75083             0.85186             0.73669             0.90129             4.76819             4.78587             0.94233             1.00510             1.51067             8.09820             0.79003             1.35268             1.32958             0.82290             6.91808             0.88245             3.20351             0.79551             1.16374             1.21837             1.59748             2.57011             3.20322             8.55166             3.98306             0.93257             7.39085             2.33692             4.51553             1.16120             7.43057             0.81689             6.73394             1.12984             1.15650             4.28836             0.84543             0.94072             4.70892             0.87933             1.02878             7.98331             0.78669             0.75618             0.95350             1.72483             2.27141             1.09531             0.83840             7.19329             8.69586             1.04932             2.81590             1.29908             7.34953             0.96922             1.12158             2.45238             7.98238             0.90651             0.97149             1.45060             0.94715             1.50728             6.86171             2.64760             1.25181             0.90472             0.75668             1.16555             8.59401             1.14451             1.20837             1.03182             1.34881             1.18072             1.14782             7.26323             1.12674             6.34338             1.62359             0.77872             1.04394             0.83581             1.02304             8.64880             3.04502             1.00817             1.00381             1.14515             0.93759             1.90872             6.06798             0.76538             1.13752             7.44231             1.06296             0.92578             1.47284             0.87102             7.29856             1.07002             1.14343             1.12299             6.39339             0.71790             4.31084             0.74588             0.80445             1.02252             1.58174             1.12120             0.98063             1.84962             1.15377             0.96144             0.77921             1.62655             6.13125             1.07232            14.47564             0.85138             0.95092             6.60066            10.87464             1.32231             0.73189             1.64550             0.74449             1.92046             3.62612             1.72837             2.01166             1.18687             0.95028             1.44534             2.05022             0.76888             1.41785             4.39804             1.10070             2.35795             0.99029             0.72518             0.75357             6.19435             5.81539             1.04360             1.23774             8.34402             0.85044             2.20397             0.85153             0.90747             1.81325             1.29046             2.72861             4.06979             0.90118             0.76624             1.13661             7.08449             1.34868             4.67104             2.10928             1.09516             1.13600             7.65263             0.78742             0.91373             0.83226             1.13662             1.25071             0.77621             0.79011             0.90002             2.51638             1.16318             1.06319             6.85325             1.16208             1.02508             0.77625             1.10599             1.40214             2.55168             3.02928             1.06395             0.86355             8.77927             2.05662             4.53489             1.57470             1.03858             0.82522             3.08689             0.79085             7.71982             1.65621             0.96557             0.93374             1.09543             1.72718             2.10831             3.58825             1.43070             6.57253             0.77485             1.10902             5.90520             0.75066             2.42647             1.70543             0.97259             0.85818             1.02737             9.52369             1.90061             1.25064             0.86187             0.97509             1.16449             6.44797             1.05226             1.46687             8.15681             1.42646             0.83156             0.80311             1.26055             1.14260             0.76192             0.85453             0.77982             0.85940             0.73899             0.96736             1.38709             1.65284             0.78033             1.50835             0.73942             5.91703             1.03296             1.10926             1.34482             1.32034             1.10787             1.70354             0.73220             0.82858             0.75690             0.87185             0.78689             1.55640             0.77033             1.46330             1.03508             1.07869             0.78446            13.48758             0.97355            10.15735             1.41006             2.02482            13.34729             0.85356             1.45281             0.76720             1.03931             1.06830            10.11457             1.52469             0.79300             0.99702             0.86971             0.78510             1.82549             0.96447             1.24290             1.41382             1.42152             0.82398             1.21969             4.75462             0.78346             1.20531             0.83514             0.99614             0.84765             1.37645             1.89373             1.52016             0.89100             1.41541             4.57927             1.27657             0.90558             0.78002             1.22720             1.09842             1.12623             1.48936             1.40431             1.48302             1.26716             0.97141             1.16194             1.79471             1.60408             1.62312             1.27653             0.78720             5.50701             0.81004             1.37617             1.74604             2.45648             0.96853             0.93574             0.93927             1.22475             0.93688             0.90614             1.47219             2.55722             1.06984             0.79270             1.42370             0.84012             0.76821             2.71127             1.15009             0.80059             1.08885             1.32737             0.86162             9.43795             2.36258             4.64631             5.36390             0.78183             1.65583             1.86900             0.75924             5.00267             0.84054             1.58096             3.33448             1.10376             8.04345             1.69454             0.84267             5.98573             0.87176             0.95591             5.49075             0.95427             1.15719             1.28169             0.74745             2.76674             2.89660             0.72663             1.18926             1.11505             1.10300             1.32692             0.86722             1.08064             1.00682             1.01098             1.56467             4.55276             1.52893             0.92328             1.23855             0.74342             0.92996             1.43257             1.13702             0.78356             0.77996             1.06437             1.76098             0.73354            12.79337             2.53668             1.11974             2.86961            10.01930             0.72733             0.96817             3.24788             3.52386             0.83278             0.85225             1.53899             1.04292             1.36108             1.09802             1.12885             2.58896             1.65127             1.23815             0.79644             1.04996             0.80284             1.59438             3.47808             6.62511             4.52845             0.90121             4.26479             0.78109             3.18495             2.04607             6.37867             0.82672             1.38003             0.80908             1.64421             2.08558             1.38878             0.75895             0.98519             3.51380             1.23678             1.38366             1.26037             0.76303             4.62416             1.46150             1.35580             7.08671             0.98370             1.12466             0.80842             1.50605             5.88204             0.79629             0.81826             0.78835             4.22691             0.93860             6.27508             1.04396             0.76791             4.14083             0.92581             3.27676             1.07468             2.31819             1.07835             0.85739             0.98074             8.88991             1.34629             0.82363             1.05062             0.97614             3.87436             7.84378             1.36840             2.25590            12.67644             1.29893             0.92136             1.50553             5.53112             1.04553             1.43104             9.68464             1.17075             1.46956             0.73501             1.01117             1.11088             2.99302             1.05366             1.43764             0.98128             1.17221             0.83027             1.09994             1.26121             1.33268             6.67269             0.82291             4.29732             0.81812             0.81410             1.13518             1.13122             4.10141             0.99703             1.08141             2.14489             1.15542             1.21003             0.99852             4.83006             6.35139             0.84239             1.68910            14.40853             2.75976             1.35648             0.89208             1.19282             1.03224            10.74501             2.05181             0.79908             1.19670             0.92372             3.49746             0.77304             3.02777             0.95876             0.76439             1.28412             1.14518             0.78589             1.04965             2.74859             2.10025             0.75612             0.78134             1.56669             1.38230             1.30482             1.30361             0.77958             1.17762             2.88880             0.97899             1.10467             0.94569             1.47546             1.30825             4.87682             2.85241             1.66191             0.94169             1.26774             3.24399            11.54094             1.15495             0.88569             2.79585             9.00316             1.66034             0.97713             3.40973             1.14718             3.01312             0.92986             1.07061             1.28981             1.26724             1.10426             0.96718             2.30866             2.58043             1.09251             1.20894             0.89342             3.05771             3.88401             0.75683             1.18011             0.81228             1.00431             1.16022             0.90835             0.92506             1.28879             0.74131             3.82876             1.56368             1.56610             1.55483             1.00278             7.84606             0.83220             3.22944             0.85034             1.70645             0.80524             3.08504             0.77689             2.25138             0.84200             1.42421             0.79116             0.76659             0.85809             1.10346             4.18727             1.89078             1.33397             6.86409             2.32673             1.59376             3.04655             0.78700             1.02919             0.83580             2.12860             1.85042             0.91963             1.40602             0.87891             1.24500             1.19616             1.35949             1.21740             0.82916             6.49951             2.16061             3.22413             1.12258             1.09265             1.02135             1.40348             1.38779             0.78948             0.72451             0.84214             1.21528             1.40727             1.16306             4.30613             1.26165             2.96506             1.07540             0.85657             0.78340             1.54620             1.16267             0.76243             3.22193             4.22159             1.04636             1.22739             1.06574             0.84543             5.92952             0.77305             1.03767             1.82004             1.13453             0.91821             8.36300             2.28434             1.50226             0.73303             1.03057             3.46185             1.17426             1.46098             0.75494             1.69191             1.10024             1.91101             0.82860             6.49446             7.17906             0.92779             0.84448             0.73348             4.07485             1.34730            11.53564             1.27023            10.41490             8.74136             5.86118             1.04666             9.04024             2.57943             0.79933             1.84932             1.10986             0.81624             0.91988             1.29323             3.98498            13.49638             1.20087             0.81285             2.38136             0.93020             1.44462             0.90370             5.85109            10.34310             1.12919             7.18880             1.41311             2.06722             1.08355             1.17289             1.30803             0.97045             2.16918             6.77811             2.43528             4.30099             1.08486             1.34286             1.13384             0.78480             4.36042             1.06753             0.77206             0.80344             1.15368             1.16987             3.83839             1.21177             1.00415             0.92107             1.32401             9.53404             5.20654             5.54044             1.14199             1.74052             1.16306             1.19647             1.28742             2.07183             1.26590             1.16551             7.98460             2.48642             1.69419             2.94611             0.80088             1.54666             3.14263             0.82327             0.83075             8.41306            10.52728             2.78037             1.67757             1.02187             1.07803             0.89464            16.14707             1.57021            11.57487             5.10942             0.84753             2.83361             1.25051             2.23494             0.75045             3.90268             0.82936            10.50660             0.96235             8.98140             9.49522             0.80038             0.73806             0.87906             8.42446             7.79832             1.21529             7.48761             0.97448             0.79316             1.93751             2.03637             1.00696             0.85676             0.77378             5.02009             1.15802             1.32540             1.01401             1.16915             0.94002             1.06041             5.25708            15.11021            11.00653             1.00198             1.22814             0.78196             1.59424             0.77775             1.49258             3.15418            12.21852             0.91218             1.55393             1.29590             1.30638             0.76634             9.48170             0.96194             0.82098            12.79953             1.14754             1.44868             0.91035            15.45963             0.99018             1.23734             1.26950             0.95962             1.48090             9.98641            11.28075             5.80543             1.02553             0.99077             1.05565             2.82886             0.85749             2.21198             1.06779             1.51746             0.71235             1.32301             0.87824             1.94777             0.76363             0.88128             1.16135             5.38962             2.35682             0.95091             0.80078             1.40283             1.20846             1.42732             0.80600             0.72662             0.80783             0.93010             0.84727             0.80428             0.76562             1.51760             0.80809             1.03050             0.81546             1.38114             1.02608             1.40499             3.27896             1.31049             0.83491             0.86471             6.22739             1.15266             1.00928             0.82836             1.48551             0.79847             0.76417             1.10287             0.87067             1.75171             1.01571             6.39605             0.73841             2.02049             1.37905             0.77104             2.53283             1.65477             0.72386             1.05811             1.30471             1.05921             1.62800             0.94636             1.10130             0.78049             7.08508             1.06227             2.21968             1.22116             1.04331             1.12195             6.18222             3.06550             1.18790             1.82672             0.77351             0.83777             1.38753             5.70270             0.81990            13.07664            10.16808             1.08854             0.73156             8.20715             1.88143             3.17226             1.05878             0.73553             1.47148             9.89245             4.68606             1.13023             1.23018             1.17790             2.41402             1.15055             2.70918             0.81000             1.00490             0.78660             1.04176             6.43203             0.83543             3.62739             1.09074             2.18410             0.92169             0.84590             0.92341             0.83757             1.41056             0.96472             0.80781             1.94853             1.65056             1.23822             1.35174             0.77070             0.79154             1.43413             4.84297             0.98861             0.91503             2.01274             0.86634             0.98664             1.14290             1.06398             0.74945             0.86273             0.99430             0.77951             0.82012             4.15459             1.27317             1.42372             1.34904             2.03806             1.08447             0.82249             0.88323             1.42494             0.79459             0.81615             2.38123             4.09416             1.11937             1.22923             4.91003             2.17152             1.57448             1.12644             2.72582             0.81578             1.94460             3.36082             9.19438             0.71617             1.15619             0.85278             0.89314             0.73912             0.86612             2.54490             1.01999             0.93523             1.51649             0.75565             1.21653             7.28306             1.29635             0.88757             1.030