# vtk DataFile Version 3.0
Output from R2
ASCII
DATASET UNSTRUCTURED_GRID
POINTS       5984 double
    -7.69000  2968.10000   0.
     0.00000  2968.10000   0.
     1.54000  2966.60000   0.
     3.08000  2964.90000   0.
     4.61000  2964.10000   0.
     6.15000  2963.30000   0.
     7.69000  2962.60000   0.
     9.23000  2961.50000   0.
    10.76000  2960.70000   0.
    12.30000  2960.00000   0.
    13.84000  2959.30000   0.
    15.38000  2958.70000   0.
    16.91000  2958.10000   0.
    18.45000  2957.30000   0.
    19.99000  2956.60000   0.
    21.52000  2955.80000   0.
    23.06000  2955.00000   0.
    24.60000  2954.30000   0.
    26.14000  2953.50000   0.
    27.68000  2952.80000   0.
    29.21000  2951.90000   0.
    30.75000  2951.10000   0.
    32.29000  2950.20000   0.
    33.83000  2949.50000   0.
    35.36000  2948.70000   0.
    36.90000  2948.10000   0.
    38.44000  2947.30000   0.
    39.98000  2946.70000   0.
    41.51000  2946.10000   0.
    43.05000  2945.50000   0.
    44.59000  2945.10000   0.
    46.13000  2944.50000   0.
    47.66000  2944.10000   0.
    49.20000  2943.60000   0.
    50.74000  2943.40000   0.
    52.28000  2943.00000   0.
    53.81000  2942.50000   0.
    55.35000  2942.10000   0.
    56.89000  2941.60000   0.
    58.43000  2941.00000   0.
    59.96000  2940.60000   0.
    61.50000  2940.10000   0.
    63.04000  2939.50000   0.
    64.58000  2939.10000   0.
    66.11000  2939.20000   0.
    67.65000  2939.20000   0.
    69.19000  2939.10000   0.
    70.73000  2938.90000   0.
    72.26000  2938.60000   0.
    73.80000  2938.30000   0.
    75.34000  2938.50000   0.
    76.88000  2938.70000   0.
    78.41000  2938.60000   0.
    79.95000  2938.80000   0.
    81.49000  2938.90000   0.
    83.03000  2939.10000   0.
    84.56000  2939.10000   0.
    92.25000  2939.10000   0.
    -7.69000  2960.92000   0.
    -2.14000  2960.92000   0.
     3.42000  2957.55000   0.
     8.97000  2954.51000   0.
    14.52000  2951.86000   0.
    20.07000  2949.38000   0.
    25.63000  2946.59000   0.
    31.18000  2943.67000   0.
    36.73000  2940.99000   0.
    42.28000  2938.62000   0.
    47.83000  2936.87000   0.
    53.39000  2935.46000   0.
    58.94000  2933.69000   0.
    64.49000  2931.95000   0.
    70.04000  2931.81000   0.
    75.60000  2931.36000   0.
    81.15000  2931.70000   0.
    86.70000  2931.92000   0.
    92.25000  2931.92000   0.
  -430.51000  2968.10000   0.
  -430.51000  -260.87000   0.
   515.07000  2939.10000   0.
   515.07000  -260.87000   0.
    -6.92100  2968.10000   0.
    -6.15200  2968.10000   0.
    -5.38300  2968.10000   0.
    -4.61400  2968.10000   0.
    -3.84500  2968.10000   0.
    -3.07600  2968.10000   0.
    -2.30700  2968.10000   0.
    -1.53800  2968.10000   0.
    -0.76900  2968.10000   0.
     0.51333  2967.60000   0.
     1.02667  2967.10000   0.
     2.05333  2966.03333   0.
     2.56667  2965.46667   0.
     3.59000  2964.63333   0.
     4.10000  2964.36667   0.
     5.12333  2963.83333   0.
     5.63667  2963.56667   0.
     6.66333  2963.06667   0.
     7.17667  2962.83333   0.
     8.20333  2962.23333   0.
     8.71667  2961.86667   0.
     9.74000  2961.23333   0.
    10.25000  2960.96667   0.
    11.27333  2960.46667   0.
    11.78667  2960.23333   0.
    12.81333  2959.76667   0.
    13.32667  2959.53333   0.
    14.35333  2959.10000   0.
    14.86667  2958.90000   0.
    15.89000  2958.50000   0.
    16.40000  2958.30000   0.
    17.42333  2957.83333   0.
    17.93667  2957.56667   0.
    18.96333  2957.06667   0.
    19.47667  2956.83333   0.
    20.50000  2956.33333   0.
    21.01000  2956.06667   0.
    22.03333  2955.53333   0.
    22.54667  2955.26667   0.
    23.57333  2954.76667   0.
    24.08667  2954.53333   0.
    25.11333  2954.03333   0.
    25.62667  2953.76667   0.
    26.65333  2953.26667   0.
    27.16667  2953.03333   0.
    28.19000  2952.50000   0.
    28.70000  2952.20000   0.
    29.72333  2951.63333   0.
    30.23667  2951.36667   0.
    31.26333  2950.80000   0.
    31.77667  2950.50000   0.
    32.80333  2949.96667   0.
    33.31667  2949.73333   0.
    34.34000  2949.23333   0.
    34.85000  2948.96667   0.
    35.87333  2948.50000   0.
    36.38667  2948.30000   0.
    37.41333  2947.83333   0.
    37.92667  2947.56667   0.
    38.95333  2947.10000   0.
    39.46667  2946.90000   0.
    40.49000  2946.50000   0.
    41.00000  2946.30000   0.
    42.02333  2945.90000   0.
    42.53667  2945.70000   0.
    43.56333  2945.36667   0.
    44.07667  2945.23333   0.
    45.10333  2944.90000   0.
    45.61667  2944.70000   0.
    46.64000  2944.36667   0.
    47.15000  2944.23333   0.
    48.17333  2943.93333   0.
    48.68667  2943.76667   0.
    49.71333  2943.53333   0.
    50.22667  2943.46667   0.
    51.25333  2943.26667   0.
    51.76667  2943.13333   0.
    52.79000  2942.83333   0.
    53.30000  2942.66667   0.
    54.32333  2942.36667   0.
    54.83667  2942.23333   0.
    55.86333  2941.93333   0.
    56.37667  2941.76667   0.
    57.40333  2941.40000   0.
    57.91667  2941.20000   0.
    58.94000  2940.86667   0.
    59.45000  2940.73333   0.
    60.47333  2940.43333   0.
    60.98667  2940.26667   0.
    62.01333  2939.90000   0.
    62.52667  2939.70000   0.
    63.55333  2939.36667   0.
    64.06667  2939.23333   0.
    65.34500  2939.15000   0.
    66.88000  2939.20000   0.
    68.42000  2939.15000   0.
    69.70333  2939.03333   0.
    70.21667  2938.96667   0.
    71.24000  2938.80000   0.
    71.75000  2938.70000   0.
    72.77333  2938.50000   0.
    73.28667  2938.40000   0.
    74.31333  2938.36667   0.
    74.82667  2938.43333   0.
    75.85333  2938.56667   0.
    76.36667  2938.63333   0.
    77.64500  2938.65000   0.
    78.92333  2938.66667   0.
    79.43667  2938.73333   0.
    80.72000  2938.85000   0.
    82.00333  2938.96667   0.
    82.51667  2939.03333   0.
    83.79500  2939.10000   0.
    85.32900  2939.10000   0.
    86.09800  2939.10000   0.
    86.86700  2939.10000   0.
    87.63600  2939.10000   0.
    88.40500  2939.10000   0.
    89.17400  2939.10000   0.
    89.94300  2939.10000   0.
    90.71200  2939.10000   0.
    91.48100  2939.10000   0.
    -6.30250  2960.92000   0.
    -4.91500  2960.92000   0.
    -3.52750  2960.92000   0.
    -1.02800  2960.24600   0.
     0.08400  2959.57200   0.
     1.19600  2958.89800   0.
     2.30800  2958.22400   0.
     4.53000  2956.94200   0.
     5.64000  2956.33400   0.
     6.75000  2955.72600   0.
     7.86000  2955.11800   0.
    10.35750  2953.84750   0.
    11.74500  2953.18500   0.
    13.13250  2952.52250   0.
    15.90750  2951.24000   0.
    17.29500  2950.62000   0.
    18.68250  2950.00000   0.
    21.18200  2948.82200   0.
    22.29400  2948.26400   0.
    23.40600  2947.70600   0.
    24.51800  2947.14800   0.
    26.74000  2946.00600   0.
    27.85000  2945.42200   0.
    28.96000  2944.83800   0.
    30.07000  2944.25400   0.
    32.56750  2943.00000   0.
    33.95500  2942.33000   0.
    35.34250  2941.66000   0.
    38.11750  2940.39750   0.
    39.50500  2939.80500   0.
    40.89250  2939.21250   0.
    43.66750  2938.18250   0.
    45.05500  2937.74500   0.
    46.44250  2937.30750   0.
    49.22000  2936.51750   0.
    50.61000  2936.16500   0.
    52.00000  2935.81250   0.
    54.77750  2935.01750   0.
    56.16500  2934.57500   0.
    57.55250  2934.13250   0.
    60.32750  2933.25500   0.
    61.71500  2932.82000   0.
    63.10250  2932.38500   0.
    65.87750  2931.91500   0.
    67.26500  2931.88000   0.
    68.65250  2931.84500   0.
    71.43000  2931.69750   0.
    72.82000  2931.58500   0.
    74.21000  2931.47250   0.
    76.98750  2931.44500   0.
    78.37500  2931.53000   0.
    79.76250  2931.61500   0.
    82.53750  2931.75500   0.
    83.92500  2931.81000   0.
    85.31250  2931.86500   0.
    88.08750  2931.92000   0.
    89.47500  2931.92000   0.
    90.86250  2931.92000   0.
    -7.69000  2967.35264   0.
    -7.69000  2966.52748   0.
    -7.69000  2965.61644   0.
    -7.69000  2964.61056   0.
    -7.69000  2963.49998   0.
    -7.69000  2962.27381   0.
    92.25000  2938.35264   0.
    92.25000  2937.52748   0.
    92.25000  2936.61644   0.
    92.25000  2935.61056   0.
    92.25000  2934.49998   0.
    92.25000  2933.27381   0.
    -8.49328  2968.10000   0.
    -9.37122  2968.10000   0.
   -10.33076  2968.10000   0.
   -11.37949  2968.10000   0.
   -12.52568  2968.10000   0.
   -13.77840  2968.10000   0.
   -15.14756  2968.10000   0.
   -16.64397  2968.10000   0.
   -18.27946  2968.10000   0.
   -20.06696  2968.10000   0.
   -22.02060  2968.10000   0.
   -24.15581  2968.10000   0.
   -26.48948  2968.10000   0.
   -29.04004  2968.10000   0.
   -31.82766  2968.10000   0.
   -34.87437  2968.10000   0.
   -38.20425  2968.10000   0.
   -41.84362  2968.10000   0.
   -45.82125  2968.10000   0.
   -50.16857  2968.10000   0.
   -54.91994  2968.10000   0.
   -60.11292  2968.10000   0.
   -65.78855  2968.10000   0.
   -71.99170  2968.10000   0.
   -78.77138  2968.10000   0.
   -86.18119  2968.10000   0.
   -94.27968  2968.10000   0.
  -103.13088  2968.10000   0.
  -112.80473  2968.10000   0.
  -123.37771  2968.10000   0.
  -134.93337  2968.10000   0.
  -147.56304  2968.10000   0.
  -161.36656  2968.10000   0.
  -176.45302  2968.10000   0.
  -192.94166  2968.10000   0.
  -210.96281  2968.10000   0.
  -230.65890  2968.10000   0.
  -252.18562  2968.10000   0.
  -275.71308  2968.10000   0.
  -301.42726  2968.10000   0.
  -329.53140  2968.10000   0.
  -360.24763  2968.10000   0.
  -393.81871  2968.10000   0.
  -430.51000  2929.65988   0.
  -430.51000  2891.21976   0.
  -430.51000  2852.77964   0.
[...]
POINT_DATA      5984
CELL_DATA     11506
SCALARS Resistivity(ohm.m) double 1
LOOKUP_TABLE default
          1055.94806          1055.96996           950.65026          1056.12946          3298.90906          1056.06973          1057.51614          1057.59831          2030.37407           950.19380          1031.40473          1059.10791           953.45569          1055.48803          1306.59505          1059.37588          1055.75978          1030.73282          1057.28527          1056.89054          1056.80710          1059.14624          1059.01153           945.12477          1056.67059          1056.62078           886.14266          1060.60721          1056.51123          1060.48643          1057.30477          1068.16881          1056.72752          1055.75991          2898.35579           794.08816          1055.56798          1698.59748          1056.72951          1054.87997          1057.34390          1055.86401          1055.87982          1108.23744           984.67942          1054.85973          1055.62446          1068.15065          1055.44334          1055.49473          1056.16420          1055.60864          1057.31032          1055.98916          1057.08545          1936.55784          2374.37316          1100.79039          1056.57622           986.77719          1056.66618          1056.40995          1056.37212          1056.37251          1056.03087          1044.28400          1056.42151          3175.19443          2834.71342          1056.74362          1056.66234          1000.65661          1056.72182           889.57677          1055.94425          1055.74121          1057.04374          1055.62917          3574.87681          1055.79523          1056.79486          1055.72424          1776.05972          1075.75543          1068.49015           986.36579           949.20668          1056.03532          1055.03850          1055.82873          1139.44827          1055.93119          1056.98628          1855.63159          1089.82901          1059.14217           968.13615          1055.50167          1056.90096          1179.46350          1058.76791          1056.91530          1148.34261          1023.64374          1056.02324          1055.94069          1289.60486          1057.25499          1056.62448          1056.18459          1079.29894          1055.54997          1055.97516           539.84664          1056.01813          1057.49555          1046.72777          1057.01981          2243.14037           808.52102          1015.96360          1055.91795          1248.65061          1055.95685          1055.50199          1245.35362           949.20504          1059.32195          1371.02340          1078.85161          1059.70058          1056.77036           949.96410          1054.57854           984.64896          1055.51870          1064.41189           728.01384          1069.33392          1044.15255          1055.77096          1055.87129          1056.89129          1044.75352          1056.87429           984.06123          1056.87825          1055.84217          1140.35563          2159.25525          1056.66972          1055.68077           970.55234          3980.50510           744.24167          1056.60379          1057.00781          1136.86036          1092.04413          1056.20039          1056.63537          1041.48517          1056.11160           540.47787          1055.61000          1055.59356          1063.74481           659.59762          1499.81361          1061.52839          1778.22426           682.08172          1057.46938          1057.26772          1055.77671          1056.98861          1141.79951          1858.83542          1164.41347          1056.63737           981.40201          1450.37628           898.18019          1055.78721           524.13744          1055.83839           502.19836          1055.69089           923.00495          1055.86847           865.26685          4505.20039          1055.53893          1525.82347           583.87106          1046.49052          1054.51201          1056.50431           846.09577          1967.06682          1065.49560          1885.21252          1038.72345          2766.05959           626.26665          1016.15009          1047.58688          1056.93279           621.19576          1057.94396          1236.30357          1198.04422          1299.27638          1164.71873          1058.63183           950.38502           722.39516          1081.69856          1076.72794          1241.36395          1056.87966          1056.72031          1928.90883          1057.94767          1056.81960          4241.63661          1050.21645           713.87288          1131.81122           677.71687          1008.47064          1827.91822          1134.90161          1129.65287          1055.62664          1055.85591           903.90512          1053.26483          1055.62347          1224.19417          1055.77987          1056.73020           827.60909          1056.88581          3839.24673          1056.92117          1336.93507          1051.96340          1045.85333          1002.41551          1000.87363          1051.65058          1055.54473          1057.02097           907.84752          1161.74430          1000.23370          1055.78086          1052.15679          1056.71036          1056.65691           950.15646          1056.62791          1056.68722           994.11952          1378.56594          1053.07599          1040.63742          1058.73098          1056.39536          1124.20692          1056.73036          2354.82884           772.96711          1062.16699          1060.12182           961.28485          1056.86132          1051.61988          1058.66336          1089.33788          1055.84380          1055.84748          1055.45912          2877.11167          1056.97998          1155.57754          1055.49134          1056.33602          1055.47527          1055.74471          1057.00192          1033.21928          2347.19689           838.61775           519.02653           989.43560          1056.06092          1055.61374          1069.10700          1056.16956          1055.86874          1056.96247          1035.93572          1055.83808          1057.11474          1056.08049          1057.12917          1057.51708          1059.41669          1057.58944          1056.78572          1060.28738           995.56185           986.54429          1057.99792          1006.29320          1059.60823           991.65039          1055.49801          1053.81461          1827.99852          1055.58537          1056.80380          1056.28348          1056.81406          1056.04903          1268.09962          1056.86393          1129.89317          1056.43248          1055.48692          1022.79987          1604.11908          1161.96136          1064.81186           831.76622          1234.26688          1057.12634           983.99660          1055.64436           897.06262           938.31185          1055.55531          1055.57370          1056.46404           488.14366           950.93954           970.39837           948.81494          1056.07136          1056.89343          5191.15106          1056.04055          1056.44509          1056.09954          1184.97006          1053.55844          1056.08934          1054.56763          1045.72118           975.79249          1024.51421           422.91204          1128.57742          1032.35507          1055.66741          1056.84310          1206.25988          1055.61149           894.77269          1059.72018          1126.29758          1056.76487          1055.72355          1056.77969          1055.55958          1054.23481          1056.66842          1056.84303          1055.60358          1054.24323          1055.82252          1056.33798           954.19345          1055.84546          1091.76464           955.81285          1674.59690          1159.41498           834.45059           803.10431          1056.64758          1056.66225          1063.17989          1055.48346           973.64583          1149.20777          1057.20284          2399.90684          1057.23837          1055.58750           843.89293          1056.83382          1026.33872          1057.21904          1053.43927          1278.39686           990.77451          1056.69724          1406.28027          1055.86927          1055.81337          1055.80347          1151.20436          3693.92936          1069.86713          1153.35637          1058.41774          1056.62609          1055.54681          1056.69710          1053.57908          2801.85036          1024.77101          1055.57363          1056.76417          1055.77637          1791.32732          1056.66866          1059.78604          1017.13927          1054.72000          1058.13051          1056.52149          1056.69773          1055.80566          1054.25475          1055.36440          1128.54259          1069.11548          1055.97186          1056.81353          1191.07840          1004.17256          1055.51325           969.32434          1056.72598          1797.74722          1056.83036          1195.30566           868.52236          1038.80784           583.78990          1058.97720          1133.58708          4211.83104          1064.17407          1055.41915          1056.73646           876.76052          1031.89731          1055.95991          1055.76504          1056.95743          1163.34652          1170.64039          1052.47550           922.00089          1039.51607          1598.65016          1064.96402           736.08341           951.96143           995.50789          1090.75645          1002.88201          1243.76264          1055.31912          1055.88519          1867.47786           967.87908          1005.78607           716.42074          1054.58174          1052.22494          1055.46266          1058.89936          1055.64912           497.74549          1056.01059          1056.29894          1055.50587          1055.59003           951.83326          1055.90256          1055.52387           951.98827           873.79651          1055.26192          1058.76468          1737.48799          1055.20439          1056.17767          1055.53128           877.92617          1056.16073          1046.64599          1055.67425          1056.31450          1060.10292           947.25936          1031.13094          1025.21490           517.89892          1165.80172           671.55441          1040.79679          1052.84845          1054.86124           907.38275          1067.01917          1056.44453          1056.82584          1056.85128           796.08770          1044.39631           877.13359           523.09859          1059.05482          1286.26516          1033.85852          1071.19649          1052.51920          1055.64555           996.66384          2170.45512          1055.58823          1056.16137          1056.47783          1056.56343           863.80130          1055.93036          1056.78751          1056.76227           923.56620          1055.49489           989.03693           895.57635           998.56082          1058.46156           982.43065          1056.76053          1056.88131          1056.88716          1005.29138           952.28130          1335.86119           967.40391          1057.24427           765.14320           820.92841          1056.77532          1055.69122          1050.40014          1055.74766          1045.50221          1055.78023          1206.08645          1055.92909          1132.79101          1056.02513          1055.47929          2367.90376          1057.58427          1056.06273          1068.52977          1442.46477          1055.89107          1056.56696          1068.74473          1056.52011          1055.45640          1202.16982          1053.17699          1060.46023          1055.82712          1059.21047           594.25788          1055.55883          1013.40200           964.76333          1175.42555          1056.19220          1644.20222          1056.88515           707.09890          1024.62921          1056.53114          1196.99218          1056.75271           585.61351          1056.81273          1011.59652          2314.74599           916.42600          1056.09552          1090.58776           984.85611           908.26904          1037.46910           802.85009          1036.14631          1059.37967           902.00584          1227.03261           438.54844          1037.50544          1055.58719           652.19244          1055.87024           497.34102          1055.49547           854.47912          1055.64285          1058.30779          1056.15013          1057.17092          1056.40729          1056.44019          1104.96061           972.10112           990.46840          1056.06775          1058.24403          1056.58143          1593.78761          1054.57255          1056.27478          1056.87658          1056.86588          1056.87192           574.20214          1094.31712          1056.69250          1059.05967          1059.24897          1030.01008          1056.47504          1055.57993          1056.51951          1050.01717          1055.72738          1055.57353          1067.34920          1003.00800          1058.10408           788.81295          1055.47958          1067.68460          1056.53398          1056.24575          1056.38334          1055.73044          1056.20878          1055.71658          1055.47385          1088.81288          1058.02414          1037.67778          1057.15642          1058.37743          1066.03618          1056.44044          1051.16352          1056.76060          1635.61847          1056.71487          1606.63717          1171.72874          1056.63462          1084.78366          1059.41815          1098.75397          1056.70376          1056.57009          1005.35216          1058.07834           459.60646          1057.56414           991.49350           968.19855           945.45903          1063.55676          1018.75742          1062.43166          1055.72011          1057.25950          1049.60441           946.28276          1989.27217          1055.82332           477.63752           970.25630           908.60562          1749.00758          1056.92914           959.54014           802.56750          1056.81500          1056.27085          1056.93341          1058.98107          1055.45471          1056.99131          2670.60665           970.23556          1056.68613          1055.70582           708.91556           792.57260          1059.42737          1282.44218          1056.76276           721.55741          1099.41673          1055.42129          1050.38925          1057.41226          1056.70027          1052.40329          1145.52262          1055.46863          1056.86801          1056.82164          1136.26676          2070.64284          1655.27918          1056.01620          1085.86317          1055.92165          1056.77965          1056.84746          1051.31426          1045.31564          1056.77716          1007.28479          1782.95938          1056.87239          1056.97574          1056.85474          1055.89859          1057.63429           945.26700          1053.49620           995.71497           609.65780          1949.84703          1055.47429          1055.70838          1056.77272          1053.73839          1055.84266           702.83065          1162.22603          1010.46180          1055.64524          1055.48201          1055.53273          1056.62708           964.33237          1056.05640           904.14905          1062.67892          1056.76795          1055.81023          1057.37518           884.14926          1056.57033          1043.35604          1055.82790          1056.75866          2397.15896          1038.99057          1049.94616           812.85435           749.17968          1567.98105          1055.68677          1033.07785          1940.93365          1052.15372          1046.21806          1055.75693          1376.08338          1055.93988          1055.76196          1056.15088          1055.81606           989.71328           432.15923          1055.85618          1056.69776          1062.57059          1513.60332          1056.77606          2468.15179          1082.55754          1055.75392          1057.15922           437.92951          1057.15531           755.73653          1095.20623          1250.80303          1055.84313          1026.44748          1008.37931          1152.91757          1046.96020          1546.66305          1055.61841           464.75699          1057.36365          1167.95075          3058.02878           858.85916          1057.06565           678.98608          1047.68501          1084.99391          1063.03732           948.76187           728.54167          1055.51283          1056.09134          1097.65491           686.57303          1055.66880          1056.69532           972.30598           710.78112          1177.93164          1055.52729           520.52738           991.70175           953.94547          1023.32025          1053.95101          1056.60376          1054.72276          2586.41470          1055.64225          1054.32900          1054.33368          1057.67947          1056.67632          1029.30900          1055.45586          1055.61497          1001.75228          1056.78531          2328.44054          1053.42886          1056.67634          1057.12090          1061.78956          1055.94093          1069.16330          1055.70905          1056.88561          1056.04631          1057.84188          1055.79184          1055.61654          1048.05632           846.74298          1896.56811           967.14448          1096.16593          1057.73819          1206.34454          1008.85127          1055.57984          1055.94180          1052.94523          1056.62476          1055.80722          1056.58676           855.34273          1056.64966          1035.34170          1004.98375          1078.53578          1103.92998          1056.09423          1055.68333           999.32653          1340.74221          2095.28983           919.02612          1057.98896           930.35215          1058.03638          1641.56265          1055.57804          1051.15033          1057.16544          1209.96231          1015.86594          1029.39966          1056.80957          1150.60135          1003.52219          1055.54393          1055.51341          1056.87633          1065.60945          1054.86894          1055.47696          1048.21553          1051.18643          1131.41184          2568.16869          1068.32545          1055.02812          1049.84631          1057.64824          1055.04105           601.92668          1026.16615          1054.96580          1366.08397          1055.91231          3673.13504           978.87614          1055.74894          1055.74052          1055.76117           587.21252           813.45090          1056.77979           961.16586          1056.88039          1177.36232           911.40142           971.18673          1114.29620          1052.50610          1055.58919           849.25830           970.95166          1334.42657          1055.77394          1059.63823          1063.66039           946.75451          1056.65116          1004.42608          1155.35315          2185.17673           679.76943           945.26710          1057.14278          1004.29381          1056.84164          1006.32398          1004.01665          1055.13603          1057.10482          1055.64013          1081.45643          1057.20970          1055.55439          1055.54838          1192.35872           695.58580          1055.83572          1056.60964          1057.14917          1006.48542          1055.89999          1007.29377          1060.14680          1056.85527           539.21533          1056.89145          1058.72211           675.47633          1062.87706           554.27942          1055.62787           969.86627          1017.09893          1032.742