# vtk DataFile Version 3.0
Output from R2
ASCII
DATASET UNSTRUCTURED_GRID
POINTS       7930 double
    -4.84000     0.00000   0.
     0.00000     0.00000   0.
     1.00000    -0.02000   0.
     2.00000     0.06000   0.
     2.99000     0.18000   0.
     3.98000     0.34000   0.
     4.96000     0.50000   0.
     5.95000     0.66000   0.
     6.94000     0.82000   0.
     7.93000     0.98000   0.
     8.92000     1.11000   0.
     9.89000     1.34000   0.
    10.88000     1.51000   0.
    11.86000     1.68000   0.
    12.84000     1.91000   0.
    13.82000     2.07000   0.
    14.80000     2.27000   0.
    15.78000     2.47000   0.
    16.77000     2.61000   0.
    17.76000     2.77000   0.
    18.73000     3.02000   0.
    19.72000     3.12000   0.
    20.70000     3.32000   0.
    21.69000     3.51000   0.
    22.67000     3.66000   0.
    23.67000     3.76000   0.
    24.64000     3.99000   0.
    25.64000     4.07000   0.
    26.59000     4.39000   0.
    27.55000     4.65000   0.
    28.53000     4.88000   0.
    29.52000     4.98000   0.
    30.48000     5.26000   0.
    31.47000     5.43000   0.
    32.46000     5.58000   0.
    33.44000     5.75000   0.
    34.42000     5.93000   0.
    35.39000     6.20000   0.
    36.38000     6.32000   0.
    37.34000     6.58000   0.
    38.33000     6.75000   0.
    39.29000     7.04000   0.
    40.26000     7.25000   0.
    41.23000     7.51000   0.
    42.20000     7.74000   0.
    43.16000     8.05000   0.
    44.10000     8.37000   0.
    45.05000     8.70000   0.
    46.04000     8.78000   0.
    47.02000     8.98000   0.
    48.00000     9.17000   0.
    48.93000     9.56000   0.
    49.90000     9.80000   0.
    50.89000     9.88000   0.
    51.82000    10.26000   0.
    52.76000    10.59000   0.
    53.73000    10.85000   0.
    54.61000    11.32000   0.
    55.50000    11.78000   0.
    56.42000    12.18000   0.
    57.30000    12.65000   0.
    58.19000    13.11000   0.
    59.17000    13.29000   0.
    60.17000    13.35000   0.
    60.97000    13.94000   0.
    65.81000    13.94000   0.
    -4.84000   -27.11000   0.
     0.00000   -27.11000   0.
     1.00000   -27.12000   0.
     2.00000   -27.05000   0.
     2.99000   -26.93000   0.
     3.98000   -26.77000   0.
     4.96000   -26.61000   0.
     5.95000   -26.45000   0.
     6.94000   -26.29000   0.
     7.93000   -26.13000   0.
     8.92000   -26.00000   0.
     9.89000   -25.77000   0.
    10.88000   -25.60000   0.
    11.86000   -25.43000   0.
    12.84000   -25.20000   0.
    13.82000   -25.04000   0.
    14.80000   -24.84000   0.
    15.78000   -24.64000   0.
    16.77000   -24.50000   0.
    17.76000   -24.33000   0.
    18.73000   -24.09000   0.
    19.72000   -23.98000   0.
    20.70000   -23.79000   0.
    21.69000   -23.60000   0.
    22.67000   -23.45000   0.
    23.67000   -23.34000   0.
    24.64000   -23.12000   0.
    25.64000   -23.04000   0.
    26.59000   -22.72000   0.
    27.55000   -22.46000   0.
    28.53000   -22.23000   0.
    29.52000   -22.12000   0.
    30.48000   -21.85000   0.
    31.47000   -21.68000   0.
    32.46000   -21.53000   0.
    33.44000   -21.36000   0.
    34.42000   -21.18000   0.
    35.39000   -20.91000   0.
    36.38000   -20.78000   0.
    37.34000   -20.52000   0.
    38.33000   -20.36000   0.
    39.29000   -20.07000   0.
    40.26000   -19.85000   0.
    41.23000   -19.59000   0.
    42.20000   -19.37000   0.
    43.16000   -19.06000   0.
    44.10000   -18.74000   0.
    45.05000   -18.41000   0.
    46.04000   -18.33000   0.
    47.02000   -18.13000   0.
    48.00000   -17.93000   0.
    48.93000   -17.55000   0.
    49.90000   -17.31000   0.
    50.89000   -17.23000   0.
    51.82000   -16.85000   0.
    52.76000   -16.52000   0.
    53.73000   -16.26000   0.
    54.61000   -15.78000   0.
    55.50000   -15.33000   0.
    56.42000   -14.93000   0.
    57.30000   -14.46000   0.
    58.19000   -14.00000   0.
    59.17000   -13.82000   0.
    60.17000   -13.76000   0.
    60.97000   -13.16000   0.
    65.81000   -13.16000   0.
  -309.70000     0.00000   0.
  -309.70000  -210.03000   0.
   370.67000    13.94000   0.
   370.67000  -210.03000   0.
    -4.40000     0.00000   0.
    -3.96000     0.00000   0.
    -3.52000     0.00000   0.
    -3.08000     0.00000   0.
    -2.64000     0.00000   0.
    -2.20000     0.00000   0.
    -1.76000     0.00000   0.
    -1.32000     0.00000   0.
    -0.88000     0.00000   0.
    -0.44000     0.00000   0.
     0.33300    -0.00700   0.
     0.66700    -0.01300   0.
     1.33300     0.00700   0.
     1.66700     0.03300   0.
     2.33000     0.10000   0.
     2.66000     0.14000   0.
     3.32000     0.23300   0.
     3.65000     0.28700   0.
     4.30700     0.39300   0.
     4.63300     0.44700   0.
     5.29000     0.55300   0.
     5.62000     0.60700   0.
     6.28000     0.71300   0.
     6.61000     0.76700   0.
     7.27000     0.87300   0.
     7.60000     0.92700   0.
     8.26000     1.02300   0.
     8.59000     1.06700   0.
     9.24300     1.18700   0.
     9.56700     1.26300   0.
    10.22000     1.39700   0.
    10.55000     1.45300   0.
    11.20700     1.56700   0.
    11.53300     1.62300   0.
    12.18700     1.75700   0.
    12.51300     1.83300   0.
    13.16700     1.96300   0.
    13.49300     2.01700   0.
    14.14700     2.13700   0.
    14.47300     2.20300   0.
    15.12700     2.33700   0.
    15.45300     2.40300   0.
    16.11000     2.51700   0.
    16.44000     2.56300   0.
    17.10000     2.66300   0.
    17.43000     2.71700   0.
    18.08300     2.85300   0.
    18.40700     2.93700   0.
    19.06000     3.05300   0.
    19.39000     3.08700   0.
    20.04700     3.18700   0.
    20.37300     3.25300   0.
    21.03000     3.38300   0.
    21.36000     3.44700   0.
    22.01700     3.56000   0.
    22.34300     3.61000   0.
    23.00300     3.69300   0.
    23.33700     3.72700   0.
    23.99300     3.83700   0.
    24.31700     3.91300   0.
    24.97300     4.01700   0.
    25.30700     4.04300   0.
    25.95700     4.17700   0.
    26.27300     4.28300   0.
    26.91000     4.47700   0.
    27.23000     4.56300   0.
    27.87700     4.72700   0.
    28.20300     4.80300   0.
    28.86000     4.91300   0.
    29.19000     4.94700   0.
    29.84000     5.07300   0.
    30.16000     5.16700   0.
    30.81000     5.31700   0.
    31.14000     5.37300   0.
    31.80000     5.48000   0.
    32.13000     5.53000   0.
    32.78700     5.63700   0.
    33.11300     5.69300   0.
    33.76700     5.81000   0.
    34.09300     5.87000   0.
    34.74300     6.02000   0.
    35.06700     6.11000   0.
    35.72000     6.24000   0.
    36.05000     6.28000   0.
    36.70000     6.40700   0.
    37.02000     6.49300   0.
    37.67000     6.63700   0.
    38.00000     6.69300   0.
    38.65000     6.84700   0.
    38.97000     6.94300   0.
    39.61300     7.11000   0.
    39.93700     7.18000   0.
    40.58300     7.33700   0.
    40.90700     7.42300   0.
    41.55300     7.58700   0.
    41.87700     7.66300   0.
    42.52000     7.84300   0.
    42.84000     7.94700   0.
    43.47300     8.15700   0.
    43.78700     8.26300   0.
    44.41700     8.48000   0.
    44.73300     8.59000   0.
    45.38000     8.72700   0.
    45.71000     8.75300   0.
    46.36700     8.84700   0.
    46.69300     8.91300   0.
    47.34700     9.04300   0.
    47.67300     9.10700   0.
    48.31000     9.30000   0.
    48.62000     9.43000   0.
    49.25300     9.64000   0.
    49.57700     9.72000   0.
    50.23000     9.82700   0.
    50.56000     9.85300   0.
    51.20000    10.00700   0.
    51.51000    10.13300   0.
    52.13300    10.37000   0.
    52.44700    10.48000   0.
    53.08300    10.67700   0.
    53.40700    10.76300   0.
    54.02300    11.00700   0.
    54.31700    11.16300   0.
    54.90700    11.47300   0.
    55.20300    11.62700   0.
    55.80700    11.91300   0.
    56.11300    12.04700   0.
    56.71300    12.33700   0.
    57.00700    12.49300   0.
    57.59700    12.80300   0.
    57.89300    12.95700   0.
    58.51700    13.17000   0.
    58.84300    13.23000   0.
    59.50300    13.31000   0.
    59.83700    13.33000   0.
    60.43700    13.54700   0.
    60.70300    13.74300   0.
    61.41000    13.94000   0.
    61.85000    13.94000   0.
    62.29000    13.94000   0.
    62.73000    13.94000   0.
    63.17000    13.94000   0.
    63.61000    13.94000   0.
    64.05000    13.94000   0.
    64.49000    13.94000   0.
    64.93000    13.94000   0.
    65.37000    13.94000   0.
    -3.22700   -27.11000   0.
    -1.61300   -27.11000   0.
    62.58300   -13.16000   0.
    64.19700   -13.16000   0.
    -4.84000    -0.44200   0.
    -4.84000    -0.90700   0.
    -4.84000    -1.39300   0.
    -4.84000    -1.90400   0.
    -4.84000    -2.44000   0.
    -4.84000    -3.00200   0.
    -4.84000    -3.59100   0.
    -4.84000    -4.21000   0.
    -4.84000    -4.85800   0.
    -4.84000    -5.53900   0.
    -4.84000    -6.25200   0.
    -4.84000    -7.00100   0.
    -4.84000    -7.78600   0.
    -4.84000    -8.61000   0.
    -4.84000    -9.47400   0.
    -4.84000   -10.38000   0.
    -4.84000   -11.33100   0.
    -4.84000   -12.32800   0.
    -4.84000   -13.37400   0.
    -4.84000   -14.47200   0.
    -4.84000   -15.62300   0.
    -4.84000   -16.83000   0.
    -4.84000   -18.09700   0.
    -4.84000   -19.42500   0.
    -4.84000   -20.81900   0.
    -4.84000   -22.28100   0.
    -4.84000   -23.81400   0.
    -4.84000   -25.42300   0.
    65.81000    13.49800   0.
    65.81000    13.03400   0.
    65.81000    12.54700   0.
    65.81000    12.03700   0.
    65.81000    11.50100   0.
[...]
POINT_DATA      7930
CELL_DATA     15554
SCALARS Resistivity(Ohm-m) double 1
LOOKUP_TABLE default
             0.66192             0.72730             0.66481             1.06484             6.05266             3.58474             1.09069             1.21955             1.22003            13.18916             0.89915             1.49914             1.09335             0.88116             4.32974             0.61643             2.57287             0.90657             1.66384             0.94767             1.07722             2.63602             2.58996            13.42494             4.34299             0.64785            10.84882             2.53890             3.87985             1.33817             4.85488             0.92688             4.58845             1.80382             1.82800             4.85435             0.72293             0.60803             3.92152             0.74805             0.97548            11.87630             0.69942             0.83556             0.63768             2.14952             2.38863             0.93701             0.93702             4.89246            14.33332             0.62889             2.60604             0.82442             4.60238             0.81777             1.45181             2.19175            12.87863             0.77059             0.60714             0.98207             0.80573             1.32123             4.32084             2.60337             1.02094             1.01558             0.64853             1.80558            14.18187             0.95223             1.39070             0.61879             1.50822             1.14010             0.72581             4.53465             0.96315             8.68614             1.39827             0.88634             1.50127             0.71678             0.70220            13.80260             2.94752             0.63373             1.16016             1.74413             0.79790             1.78470             4.33766             0.66597             0.80082             4.79693             1.22185             0.66218             0.97185             1.01507            11.48306             0.92162             1.15086             0.75616             4.06489             0.74100             5.30743             0.80050             0.90935             0.63519             1.42609             1.75201             1.13647             1.68944             1.28086             0.78789             0.88481             1.23059             8.50516             0.92141            27.60343             0.72664             0.97047             9.29518             6.61377             0.87869             0.75345             1.84045             0.69152             1.83107             3.91717             1.58077             2.73018             1.02546             1.11937             0.99594             1.75464             0.69302             0.94196             3.37578             0.76647             2.49827             1.14294             0.76289             0.71617             4.32757             4.08541             0.62144             1.26965            13.69836             0.72635             2.09087             0.62200             1.10421             2.07820             1.46618             2.74512             3.53885             0.61232             0.85424             0.91574             4.42217             0.99367             6.22637             2.18153             1.25064             1.78264            11.52681             0.89423             1.05734             0.95126             1.75213             1.12575             0.87932             0.90306             1.05112             2.86423             1.90840             0.91778             4.57800             1.81088             0.77061             0.88269             0.79713             1.19897             2.25871             3.00305             1.56671             0.73577            13.46091             2.18869             3.22215             2.22202             0.70089             0.71054             2.91407             0.69158             5.17690             1.47739             1.13696             0.60234             0.65411             1.86855             2.12864             3.40226             1.05985             9.97164             0.67339             1.65087             3.82677             0.80395             2.48348             1.51505             1.23781             0.73188             1.44505            15.14768             2.02067             0.87883             0.72114             0.83100             1.33083             9.42708             1.44338             1.06615             5.35388             1.06086             0.71422             0.81766             0.76051             0.83668             0.63751             0.99642             0.88702             0.73286             0.73576             1.26804             1.24945             1.55496             0.88152             1.05715             0.66034             3.96729             0.62201             0.95616             1.61661             0.97956             0.70752             2.37554             0.70696             0.71252             0.82477             1.02738             0.78241             1.41730             0.86357             1.33097             0.66532             0.64367             0.85718            25.61810             0.61098             6.12386             0.91889             1.74969            25.16509             0.71926             1.03816             0.82137             1.47639             0.68182             6.11735             1.75307             0.90607             0.64257             0.74064             0.89763             2.00169             1.16349             1.02920             1.34954             1.16274             0.70973             1.04348             6.43852             0.68722             1.00091             0.71644             0.91892             0.61172             1.19725             2.08749             2.11868             0.75768             1.12857             3.20488             0.90698             0.96854             0.73803             1.40350             0.67286             1.40275             1.61988             1.04887             2.19707             2.13456             0.75199             1.75299             1.84553             1.12944             1.55016             1.92894             0.89940             7.34033             0.91870             0.86482             1.76476             2.76605             0.65499             0.79268             0.91207             1.34695             0.99407             0.77080             0.93158             2.81533             1.58850             0.90473             1.14206             0.71942             0.86224             2.30143             1.89346             0.69676             1.49358             1.31887             0.73423            15.15539             2.37546             5.39480             3.87394             0.88818             2.29429             1.78539             0.67112             4.08759             0.71974             1.69674             3.79231             0.72446             5.22693             1.81264             0.72094             8.80292             0.74200             1.10342             3.62336             0.68516             1.41743             2.11365             0.65961             2.70100             3.04615             0.69967             1.29360             1.29592             0.68313             0.83401             1.00548             1.42809             0.76916             0.64349             1.92359             5.83337             1.42618             0.60265             0.85409             0.78207             0.78955             1.04519             1.29195             0.89164             0.87668             1.26719             2.51838             0.77552            22.88030             2.68610             0.65932             2.75501             6.25790             0.67993             0.61315             3.15102             2.90667             0.81600             0.72732             1.44694             1.20273             1.22364             0.95249             0.68467             2.45245             1.70303             2.00776             0.68873             1.49136             0.91778             2.00704             3.40704             8.93400             3.34818             1.03733             4.88521             0.68694             2.86196             2.06090             4.66450             0.71097             1.15650             0.69723             1.71205             2.13523             1.95384             0.67456             0.83873             3.83908             0.78801             0.89370             0.92097             0.85296             3.80945             1.11631             1.60049            10.96878             1.23953             1.61616             0.92426             1.27078             8.27954             0.90844             0.70680             0.65814             5.21988             1.17662             4.03208             1.30923             0.78086             5.30406             0.71383             3.66543             1.59189             2.13467             1.54545             0.98410             0.65922            13.50860             1.80821             0.70528             0.67349             1.16115             3.33659             5.31331             1.12127             2.08505            23.69728             0.88123             0.77445             1.04056             3.80749             0.81365             1.10194             5.84372             1.09229             1.09608             0.69009             1.25004             0.71855             3.22724             0.62713             2.03633             0.61176             0.80816             0.71326             1.44031             1.45255             1.25168             9.19410             0.70964             3.28389             0.93341             0.70433             1.83999             1.65609             3.01192             1.34295             1.59806             1.92068             1.21196             2.05133             1.16119             6.08944             4.54259             0.72078             1.55129            27.66069             2.87542             1.02969             1.05057             1.25679             0.81991             6.50164             1.99300             0.67020             0.86323             1.07512             2.93739             0.86428             2.47936             0.60464             0.83166             1.01189             1.30136             0.84237             0.75052             3.09619             1.98434             0.74900             0.68217             1.07242             0.91226             1.26844             1.33704             0.88230             1.99431             2.39290             1.12820             1.61835             1.12834             1.28914             0.81544             3.68188             3.11707             1.95736             1.19896             0.99292             2.83402            21.07736             1.90103             0.74707             2.77766             5.44113             2.20468             0.73483             3.63780             0.70940             2.50940             0.63061             1.45030             0.84668             1.40925             0.95779             0.82541             2.45701             2.77447             0.65680             1.06915             0.67530             3.44099             4.41817             0.82852             0.92679             0.91241             0.61794             1.91735             0.77154             0.69665             1.11987             0.67078             3.37539             1.45358             1.04649             2.10270             1.21492            12.29343             0.71419             3.07960             0.60750             1.31943             0.69925             3.52015             0.87468             2.22180             0.96330             1.21522             0.89175             0.67834             0.61341             1.57073             3.46750             1.59275             0.81717             4.43022             2.38076             1.17970             2.61964             0.90032             1.24198             0.95583             2.79449             1.95730             0.78247             0.87395             0.74775             1.59880             0.86807             1.02026             2.10992             0.71190             9.59697             2.09385             2.68635             1.78613             1.65992             1.01486             1.80598             1.71806             0.89551             0.74270             0.97037             1.63886             0.90028             1.94429             5.63359             2.09186             2.96054             1.26613             0.73041             0.89536             1.35095             1.61748             0.81730             2.64597             3.03926             0.73161             0.94768             1.24215             0.61993             3.93970             0.68281             0.64436             1.53034             1.83738             0.75327            13.46708             2.66529             1.18859             0.67586             1.42450             3.26862             1.54194             0.93119             0.67686             1.76709             0.73136             1.90843             0.71288             9.78377             4.56325             0.68226             0.97036             0.66809             4.77920             1.15673            20.92908             2.05992            16.99146             5.68659             3.81690             0.74277             5.48631             2.73243             0.64248             1.72771             1.27357             0.93001             1.05981             2.05998             4.48032            25.10747             1.08923             0.70237             2.35928             1.08720             1.32689             1.10225             8.14145             6.32576             1.65727             9.96246             1.70155             1.97208             1.53282             1.92430             1.73237             0.71068             2.54185             4.88369             2.31610             3.45862             0.63726             1.08647             1.23334             0.88776             3.65248             0.67078             0.87233             0.90990             1.80306             0.69325             4.69052             0.76606             0.72107             0.78345             1.01475            15.78811             6.85394             3.85751             1.32029             2.22809             0.70484             0.91071             1.43743             2.12839             1.84329             0.72695             5.05773             2.21199             1.90474             3.22347             0.91527             1.64299             3.36211             0.93770             0.71403             5.11548            18.68047             2.47516             1.39782             0.83247             1.39674             0.62964            32.37840             1.18189             6.95237             3.71576             0.97813             2.85696             0.93917             2.05756             0.82239             2.99901             0.77500            18.55463             0.81569            15.10675            16.28779             0.68793             0.74924             0.74794             5.13781             4.78755             1.58992             4.63051             0.62946             0.86927             2.64441             2.10838             1.15970             0.73061             0.87588             6.04916             0.80987             0.95746             0.63058             1.44381             0.61097             0.69700             4.16814            29.80279             6.60361             1.12167             0.76748             0.79711             1.05529             0.88665             1.99048             2.70966            22.40217             0.87598             2.25683             1.91948             1.10531             0.71460             5.76378             0.61339             0.83350            23.16910             1.69501             1.81363             1.09027            30.33176             0.84663             1.87200             0.77008             0.89749             1.21359             6.17781             6.81055             8.36217             0.73743             1.30572             1.21126             3.01495             0.66918             2.21857             0.70531             1.26786             0.68486             0.91889             1.04175             2.32149             0.64715             0.73499             0.74598             3.61611             2.24051             0.69878             0.69623             1.18309             1.93670             1.19410             0.84261             0.66859             0.91817             1.16797             0.72404             0.69758             0.85964             1.41920             0.69839             0.88528             0.92069             1.89943             0.66740             1.09886             3.52290             1.43628             0.71629             0.73650             9.15823             1.84733             1.30650             0.71266             1.09997             0.65418             0.84497             1.49126             0.74135             1.35627             0.61484             8.60453             0.79392             2.05402             1.50243             0.67612             2.69425             1.35154             0.71513             0.63566             1.17417             1.06241             1.69051             1.14626             1.71096             0.89054            10.48737             0.62655             2.90274             1.06778             1.19960             0.76502             4.50647             2.71300             1.86318             2.55305             0.86256             0.71551             0.99534             3.78163             0.93777            24.73313            17.82442             0.70785             0.77683             5.00738             1.86283             3.56729             0.77157             0.79008             1.25636             5.95283             5.72040             1.77418             0.90120             0.96984             2.29106             1.89906             2.75379             0.70193             0.74959             0.68784             1.20958             4.32050             0.95638             3.17982             1.61345             2.03681             0.61924             0.72303             1.06417             0.71790             1.31273             1.10285             0.90985             1.78750             1.53827             0.87948             1.22685             0.87061             0.69155             1.54653             3.76824             1.14415             0.84785             2.05120             0.71087             0.77777             1.85162             1.42538             0.81629             0.72876             1.34505             0.88948             0.93770             5.37811             0.96631             1.65044             1.98923             1.96497             1.62740             0.70922             1.01560             2.09974             0.83277             0.70533             2.56093             2.97341             1.60466             0.74003             6.62082             2.01906             1.12899             0.94836             2.41248             0.69638             2.37894             2.80359            15.26474             0.67832             0.82912             0.90665             0.75967             0.67337             0.73619             2.21741             0.87422             0.72106             1.77520             0.83750             0.80185            11.13730             1.38661             0.63818             1.347