# vtk DataFile Version 3.0
Output from R2
ASCII
DATASET UNSTRUCTURED_GRID
POINTS       5984 double
    -7.69000  2968.10000   0.
     0.00000  2968.10000   0.
     1.54000  2966.60000   0.
     3.08000  2964.90000   0.
     4.61000  2964.10000   0.
     6.15000  2963.30000   0.
     7.69000  2962.60000   0.
     9.23000  2961.50000   0.
    10.76000  2960.70000   0.
    12.30000  2960.00000   0.
    13.84000  2959.30000   0.
    15.38000  2958.70000   0.
    16.91000  2958.10000   0.
    18.45000  2957.30000   0.
    19.99000  2956.60000   0.
    21.52000  2955.80000   0.
    23.06000  2955.00000   0.
    24.60000  2954.30000   0.
    26.14000  2953.50000   0.
    27.68000  2952.80000   0.
    29.21000  2951.90000   0.
    30.75000  2951.10000   0.
    32.29000  2950.20000   0.
    33.83000  2949.50000   0.
    35.36000  2948.70000   0.
    36.90000  2948.10000   0.
    38.44000  2947.30000   0.
    39.98000  2946.70000   0.
    41.51000  2946.10000   0.
    43.05000  2945.50000   0.
    44.59000  2945.10000   0.
    46.13000  2944.50000   0.
    47.66000  2944.10000   0.
    49.20000  2943.60000   0.
    50.74000  2943.40000   0.
    52.28000  2943.00000   0.
    53.81000  2942.50000   0.
    55.35000  2942.10000   0.
    56.89000  2941.60000   0.
    58.43000  2941.00000   0.
    59.96000  2940.60000   0.
    61.50000  2940.10000   0.
    63.04000  2939.50000   0.
    64.58000  2939.10000   0.
    66.11000  2939.20000   0.
    67.65000  2939.20000   0.
    69.19000  2939.10000   0.
    70.73000  2938.90000   0.
    72.26000  2938.60000   0.
    73.80000  2938.30000   0.
    75.34000  2938.50000   0.
    76.88000  2938.70000   0.
    78.41000  2938.60000   0.
    79.95000  2938.80000   0.
    81.49000  2938.90000   0.
    83.03000  2939.10000   0.
    84.56000  2939.10000   0.
    92.25000  2939.10000   0.
    -7.69000  2960.92000   0.
    -2.14000  2960.92000   0.
     3.42000  2957.55000   0.
     8.97000  2954.51000   0.
    14.52000  2951.86000   0.
    20.07000  2949.38000   0.
    25.63000  2946.59000   0.
    31.18000  2943.67000   0.
    36.73000  2940.99000   0.
    42.28000  2938.62000   0.
    47.83000  2936.87000   0.
    53.39000  2935.46000   0.
    58.94000  2933.69000   0.
    64.49000  2931.95000   0.
    70.04000  2931.81000   0.
    75.60000  2931.36000   0.
    81.15000  2931.70000   0.
    86.70000  2931.92000   0.
    92.25000  2931.92000   0.
  -430.51000  2968.10000   0.
  -430.51000  -260.87000   0.
   515.07000  2939.10000   0.
   515.07000  -260.87000   0.
    -6.92100  2968.10000   0.
    -6.15200  2968.10000   0.
    -5.38300  2968.10000   0.
    -4.61400  2968.10000   0.
    -3.84500  2968.10000   0.
    -3.07600  2968.10000   0.
    -2.30700  2968.10000   0.
    -1.53800  2968.10000   0.
    -0.76900  2968.10000   0.
     0.51333  2967.60000   0.
     1.02667  2967.10000   0.
     2.05333  2966.03333   0.
     2.56667  2965.46667   0.
     3.59000  2964.63333   0.
     4.10000  2964.36667   0.
     5.12333  2963.83333   0.
     5.63667  2963.56667   0.
     6.66333  2963.06667   0.
     7.17667  2962.83333   0.
     8.20333  2962.23333   0.
     8.71667  2961.86667   0.
     9.74000  2961.23333   0.
    10.25000  2960.96667   0.
    11.27333  2960.46667   0.
    11.78667  2960.23333   0.
    12.81333  2959.76667   0.
    13.32667  2959.53333   0.
    14.35333  2959.10000   0.
    14.86667  2958.90000   0.
    15.89000  2958.50000   0.
    16.40000  2958.30000   0.
    17.42333  2957.83333   0.
    17.93667  2957.56667   0.
    18.96333  2957.06667   0.
    19.47667  2956.83333   0.
    20.50000  2956.33333   0.
    21.01000  2956.06667   0.
    22.03333  2955.53333   0.
    22.54667  2955.26667   0.
    23.57333  2954.76667   0.
    24.08667  2954.53333   0.
    25.11333  2954.03333   0.
    25.62667  2953.76667   0.
    26.65333  2953.26667   0.
    27.16667  2953.03333   0.
    28.19000  2952.50000   0.
    28.70000  2952.20000   0.
    29.72333  2951.63333   0.
    30.23667  2951.36667   0.
    31.26333  2950.80000   0.
    31.77667  2950.50000   0.
    32.80333  2949.96667   0.
    33.31667  2949.73333   0.
    34.34000  2949.23333   0.
    34.85000  2948.96667   0.
    35.87333  2948.50000   0.
    36.38667  2948.30000   0.
    37.41333  2947.83333   0.
    37.92667  2947.56667   0.
    38.95333  2947.10000   0.
    39.46667  2946.90000   0.
    40.49000  2946.50000   0.
    41.00000  2946.30000   0.
    42.02333  2945.90000   0.
    42.53667  2945.70000   0.
    43.56333  2945.36667   0.
    44.07667  2945.23333   0.
    45.10333  2944.90000   0.
    45.61667  2944.70000   0.
    46.64000  2944.36667   0.
    47.15000  2944.23333   0.
    48.17333  2943.93333   0.
    48.68667  2943.76667   0.
    49.71333  2943.53333   0.
    50.22667  2943.46667   0.
    51.25333  2943.26667   0.
    51.76667  2943.13333   0.
    52.79000  2942.83333   0.
    53.30000  2942.66667   0.
    54.32333  2942.36667   0.
    54.83667  2942.23333   0.
    55.86333  2941.93333   0.
    56.37667  2941.76667   0.
    57.40333  2941.40000   0.
    57.91667  2941.20000   0.
    58.94000  2940.86667   0.
    59.45000  2940.73333   0.
    60.47333  2940.43333   0.
    60.98667  2940.26667   0.
    62.01333  2939.90000   0.
    62.52667  2939.70000   0.
    63.55333  2939.36667   0.
    64.06667  2939.23333   0.
    65.34500  2939.15000   0.
    66.88000  2939.20000   0.
    68.42000  2939.15000   0.
    69.70333  2939.03333   0.
    70.21667  2938.96667   0.
    71.24000  2938.80000   0.
    71.75000  2938.70000   0.
    72.77333  2938.50000   0.
    73.28667  2938.40000   0.
    74.31333  2938.36667   0.
    74.82667  2938.43333   0.
    75.85333  2938.56667   0.
    76.36667  2938.63333   0.
    77.64500  2938.65000   0.
    78.92333  2938.66667   0.
    79.43667  2938.73333   0.
    80.72000  2938.85000   0.
    82.00333  2938.96667   0.
    82.51667  2939.03333   0.
    83.79500  2939.10000   0.
    85.32900  2939.10000   0.
    86.09800  2939.10000   0.
    86.86700  2939.10000   0.
    87.63600  2939.10000   0.
    88.40500  2939.10000   0.
    89.17400  2939.10000   0.
    89.94300  2939.10000   0.
    90.71200  2939.10000   0.
    91.48100  2939.10000   0.
    -6.30250  2960.92000   0.
    -4.91500  2960.92000   0.
    -3.52750  2960.92000   0.
    -1.02800  2960.24600   0.
     0.08400  2959.57200   0.
     1.19600  2958.89800   0.
     2.30800  2958.22400   0.
     4.53000  2956.94200   0.
     5.64000  2956.33400   0.
     6.75000  2955.72600   0.
     7.86000  2955.11800   0.
    10.35750  2953.84750   0.
    11.74500  2953.18500   0.
    13.13250  2952.52250   0.
    15.90750  2951.24000   0.
    17.29500  2950.62000   0.
    18.68250  2950.00000   0.
    21.18200  2948.82200   0.
    22.29400  2948.26400   0.
    23.40600  2947.70600   0.
    24.51800  2947.14800   0.
    26.74000  2946.00600   0.
    27.85000  2945.42200   0.
    28.96000  2944.83800   0.
    30.07000  2944.25400   0.
    32.56750  2943.00000   0.
    33.95500  2942.33000   0.
    35.34250  2941.66000   0.
    38.11750  2940.39750   0.
    39.50500  2939.80500   0.
    40.89250  2939.21250   0.
    43.66750  2938.18250   0.
    45.05500  2937.74500   0.
    46.44250  2937.30750   0.
    49.22000  2936.51750   0.
    50.61000  2936.16500   0.
    52.00000  2935.81250   0.
    54.77750  2935.01750   0.
    56.16500  2934.57500   0.
    57.55250  2934.13250   0.
    60.32750  2933.25500   0.
    61.71500  2932.82000   0.
    63.10250  2932.38500   0.
    65.87750  2931.91500   0.
    67.26500  2931.88000   0.
    68.65250  2931.84500   0.
    71.43000  2931.69750   0.
    72.82000  2931.58500   0.
    74.21000  2931.47250   0.
    76.98750  2931.44500   0.
    78.37500  2931.53000   0.
    79.76250  2931.61500   0.
    82.53750  2931.75500   0.
    83.92500  2931.81000   0.
    85.31250  2931.86500   0.
    88.08750  2931.92000   0.
    89.47500  2931.92000   0.
    90.86250  2931.92000   0.
    -7.69000  2967.35264   0.
    -7.69000  2966.52748   0.
    -7.69000  2965.61644   0.
    -7.69000  2964.61056   0.
    -7.69000  2963.49998   0.
    -7.69000  2962.27381   0.
    92.25000  2938.35264   0.
    92.25000  2937.52748   0.
    92.25000  2936.61644   0.
    92.25000  2935.61056   0.
    92.25000  2934.49998   0.
    92.25000  2933.27381   0.
    -8.49328  2968.10000   0.
    -9.37122  2968.10000   0.
   -10.33076  2968.10000   0.
   -11.37949  2968.10000   0.
   -12.52568  2968.10000   0.
   -13.77840  2968.10000   0.
   -15.14756  2968.10000   0.
   -16.64397  2968.10000   0.
   -18.27946  2968.10000   0.
   -20.06696  2968.10000   0.
   -22.02060  2968.10000   0.
   -24.15581  2968.10000   0.
   -26.48948  2968.10000   0.
   -29.04004  2968.10000   0.
   -31.82766  2968.10000   0.
   -34.87437  2968.10000   0.
   -38.20425  2968.10000   0.
   -41.84362  2968.10000   0.
   -45.82125  2968.10000   0.
   -50.16857  2968.10000   0.
   -54.91994  2968.10000   0.
   -60.11292  2968.10000   0.
   -65.78855  2968.10000   0.
   -71.99170  2968.10000   0.
   -78.77138  2968.10000   0.
   -86.18119  2968.10000   0.
   -94.27968  2968.10000   0.
  -103.13088  2968.10000   0.
  -112.80473  2968.10000   0.
  -123.37771  2968.10000   0.
  -134.93337  2968.10000   0.
  -147.56304  2968.10000   0.
  -161.36656  2968.10000   0.
  -176.45302  2968.10000   0.
  -192.94166  2968.10000   0.
  -210.96281  2968.10000   0.
  -230.65890  2968.10000   0.
  -252.18562  2968.10000   0.
  -275.71308  2968.10000   0.
  -301.42726  2968.10000   0.
  -329.53140  2968.10000   0.
  -360.24763  2968.10000   0.
  -393.81871  2968.10000   0.
  -430.51000  2929.65988   0.
  -430.51000  2891.21976   0.
  -430.51000  2852.77964   0.
[...]
POINT_DATA      5984
CELL_DATA     11506
SCALARS Resistivity(ohm.m) double 1
LOOKUP_TABLE default
          1231.69514          1231.77518          1189.50031          1238.55411          3492.15665          1238.46218          1237.89913          1238.01851          2048.86478          1283.32944          1236.67346          1242.85839          1186.12380          1230.73368          1435.60458          1243.04233          1231.05807          1236.51392          1240.77232          1238.61344          1238.38602          1241.01253          1240.75246          1043.53496          1233.39460          1233.25562          1061.79804          1243.62150          1233.20934          1243.33898          1240.51789          1251.92281          1235.87769          1231.04794          2910.44279           981.78364          1239.54682          1797.82470          1235.91233          1240.25297          1237.46205          1231.53084          1231.57152          1273.02791          1182.57046          1240.05531          1230.96973          1251.96299          1239.51258          1230.73137          1238.99183          1230.95208          1237.33184          1231.67523          1237.74809          1966.08889          2357.72124          1267.27064          1233.31466          1209.57826          1236.36979          1233.54048          1233.56033          1232.97125          1231.75105          1240.35150          1233.08774          3358.76992          2879.32554          1237.46089          1236.33583          1230.68135          1237.24839           980.81794          1231.92402          1230.93427          1235.52724          1231.10865          3747.59468          1231.35860          1233.57916          1230.93189          1891.36099          1227.67488          1252.50442          1226.05454          1281.00058          1237.83746          1239.89607          1231.36772          1293.71624          1231.85339          1236.47182          1961.41309          1240.35249          1241.92028          1211.59170          1231.13209          1234.56202          1299.55749          1240.88447          1234.49400          1310.69544          1234.73911          1239.07290          1231.36895          1420.94289          1236.51944          1233.43827          1232.02266          1260.95038          1240.18461          1231.36895           515.47157          1232.17083          1237.53056          1241.07158          1235.33510          2210.41561           990.28244          1219.95874          1231.36193          1387.50573          1231.36443          1230.69267          1385.09194          1261.46036          1242.17465          1353.04350          1260.81580          1243.70801          1235.32302          1263.50682          1239.31389          1282.80380          1239.98174          1249.13165           948.01594          1253.11283          1240.21815          1231.07275          1231.79066          1234.71372          1240.01013          1233.91523          1210.91750          1234.48219          1238.19833          1299.31897          2235.52109          1234.06297          1238.19263          1208.92922          3921.76755           848.14964          1238.47390          1235.52805          1301.03050          1251.87473          1232.05343          1233.24286          1235.26714          1232.35565           580.83432          1231.08001          1231.05643          1248.73204           807.64865          1552.33626          1248.99685          1794.05888           895.31061          1239.16841          1237.46900          1231.32852          1236.68283          1301.37551          1888.83621          1322.70988          1233.23337          1225.15176          1556.51614          1071.00862          1231.39134           553.00792          1231.42252           467.97586          1231.10520          1244.33497          1231.60116          1159.81224          4660.60023          1230.99180          1637.68386           612.17411          1240.67934          1243.27130          1237.48619          1122.56511          2108.35895          1250.25556          1988.08760          1238.22373          2886.69215           675.21095          1232.78734          1240.94693          1239.33537           716.10932          1240.19499          1377.78749          1317.19665          1427.29537          1319.36850          1240.78570          1245.66675           755.01845          1262.58390          1259.39589          1381.15049          1234.79791          1234.55176          2087.68525          1240.02640          1233.73055          4353.24651          1242.46087           944.08844          1298.68431           626.72772          1148.27596          1851.25101          1300.92193          1290.44891          1231.02612          1231.26890           982.76086          1244.36377          1231.04955          1363.89144          1231.31728          1233.42658           970.22631          1236.73705          3931.45514          1236.66339          1463.32278          1240.24517          1240.75985          1229.93470          1230.69168          1240.74549          1231.13171          1239.22933          1193.97435          1318.67521          1229.71373          1231.06822          1240.82700          1238.26976          1238.73477          1278.32108          1238.30342          1237.48272          1270.56418          1496.17351          1239.55777          1238.89967          1240.57926          1232.59105          1291.21110          1237.56294          2204.96182           922.38471          1250.43521          1249.24015          1293.74127          1234.83503          1240.31041          1240.59418          1267.29123          1231.27740          1242.98820          1230.65209          3018.90401          1235.33285          1316.18771          1230.54135          1237.52802          1230.72293          1231.25814          1235.47848          1237.21712          2199.22097           998.31302           580.02958          1227.98512          1240.99001          1230.99972          1254.24587          1240.84116          1231.64360          1235.32011          1238.10683          1231.63816          1237.75181          1232.22194          1235.97179          1238.52064          1242.14298          1238.60438          1237.30703          1242.74621          1214.33865          1214.37776          1240.94254          1231.28560          1243.35979          1211.31480          1230.97597          1244.45086          1964.94222          1231.27532          1243.34315          1233.60892          1237.24203          1231.77965          1403.22820          1234.71266          1296.95734          1236.85635          1230.55550          1224.00568          1671.69696          1311.53639          1249.84490           908.62984          1376.32881          1235.79141          1281.01511          1231.18879          1207.27951          1205.73386          1230.97551          1230.97961          1236.68561           500.10181          1262.52030          1235.75190          1248.35946          1231.91632          1234.64322          4831.18328          1232.10469          1232.74116          1231.98229          1247.66155          1244.33790          1239.50803          1243.06886          1240.59054          1187.91222          1234.95041           410.16069          1286.56841          1236.96250          1231.19508          1233.77953          1353.51433          1231.08369          1157.41079          1243.68672          1294.33294          1234.97176          1231.19989          1235.03134          1231.22060          1241.85639          1233.42114          1234.95970          1231.18705          1242.80063          1231.39776          1232.82563          1288.46780          1231.71049          1268.76390          1290.23065          1785.68763          1314.90873          1105.15960           958.18641          1236.92579          1237.10868          1249.14067          1230.74351          1112.59422          1307.45475          1236.34430          2280.08741          1236.48624          1231.19949           995.36165          1233.69460          1235.53612          1240.09373          1243.46422          1251.23991          1189.75670          1238.12576          1521.91719          1231.73378          1231.18074          1231.14436          1312.87097          3771.66780          1254.17110          1279.06047          1244.72367          1237.96789          1231.16942          1236.28788          1243.74612          2984.81253          1235.12328          1231.19077          1235.73788          1231.18609          1960.24654          1236.48381          1242.89444          1232.95945          1239.30727          1241.03109          1236.48230          1236.14278          1231.42109          1241.62088          1240.38150          1194.56257          1254.57956          1232.07092          1236.47421          1324.51218          1210.92983          1241.94316          1163.96468          1234.15392          1901.80701          1236.64301          1280.34738          1165.43503          1238.70679           611.64734          1242.94287          1292.52108          4288.80470          1249.63159          1241.51984          1233.67733          1095.46006          1236.79379          1231.97239          1231.29069          1236.77429          1320.33556          1326.20652          1241.29300          1116.67316          1234.92662          1689.93243          1250.15127           977.07351          1261.86959          1229.35108          1267.83587          1229.34192          1382.64080          1239.85780          1231.52213          1905.38457          1228.71880          1214.48594           811.30331          1239.34005          1243.34487          1230.65940          1241.52098          1231.03283           503.21518          1232.54858          1232.70182          1230.87141          1230.92795          1259.34545          1231.90680          1230.86331          1174.77361          1018.11930          1239.05868          1242.69934          1851.31986          1239.20008          1232.52903          1230.88899          1131.34563          1232.48340          1241.17031          1231.06334          1232.79452          1242.41133          1271.17291          1234.96647          1234.98043           532.25579          1322.78129           821.04694          1236.22359          1242.01742          1239.25265          1185.96012          1252.72009          1244.64091          1233.69220          1234.07484          1065.43784          1238.39797          1178.21163           355.28270          1243.27899          1379.07436          1237.46106          1255.86761          1242.37529          1231.09269          1229.09080          2162.88260          1231.16434          1232.52132          1233.22407          1236.37693          1047.99687          1231.97629          1234.70439          1236.57422          1123.56386          1231.03078          1226.09239          1055.80662          1229.22535          1244.55638          1220.47692          1234.63549          1235.01768          1234.44957          1226.33253          1245.56815          1461.68884          1216.45947          1236.65967           869.61780           982.06954          1233.81090          1231.14703          1240.42355          1231.23029          1240.17587          1231.32012          1352.57242          1231.57340          1293.57473          1231.90550          1230.98567          2229.60722          1237.68586          1231.96890          1253.37392          1528.64616          1231.86051          1233.13548          1253.36106          1233.31665          1230.57321          1349.92488          1242.65468          1243.14420          1231.49349          1240.93296           628.99691          1231.17016          1232.25702          1163.95633          1288.50652          1232.06024          1756.29404          1238.21329           910.96424          1231.07107          1237.65314          1274.69855          1235.02333           699.76358          1233.94036          1231.89517          2337.31623          1235.37693          1231.85817          1268.29716          1225.09989          1222.88231          1238.65941           995.54313          1238.17884          1241.47399          1169.55314          1283.80815           430.91433          1238.29624          1230.92216           755.35282          1231.45524           517.80160          1230.97839          1128.81654          1241.79137          1239.66553          1231.97411          1236.20805          1232.93739          1237.32500          1278.43217          1234.61924          1078.09474          1237.58741          1239.61130          1242.99838          1680.43978          1239.41358          1239.45075          1234.95261          1235.09062          1234.42767           601.05117          1268.61614          1236.12187          1240.78016          1241.05182          1233.74253          1237.13230          1231.03273          1237.03187          1240.46539          1231.22015          1231.07171          1251.30879          1188.75140          1245.88148           929.41964          1230.87333          1253.34558          1237.32430          1233.50191          1232.97200          1231.26210          1232.54937          1238.04657          1230.89980          1197.93976          1239.81223          1238.65734          1236.38941          1243.95078          1251.95792          1233.11179          1243.16830          1236.82734          1728.93073          1233.58989          1718.37560          1328.02994          1233.30374          1248.07631          1246.67630          1274.61708          1233.55239          1238.16797          1230.48190          1243.63750           460.22206          1239.40548          1229.73662          1219.77049          1264.81060          1247.50804          1233.56883          1246.43880          1231.23995          1236.67335          1243.31418          1278.04933          1971.18415          1231.63589           399.29943          1215.04272          1209.13641          1767.64235          1237.57211          1290.89986           759.39021          1233.77899          1232.66409          1237.45730          1240.60771          1242.93123          1238.99900          2781.81922          1197.59435          1234.21850          1231.19825           926.19265           868.93624          1241.46328          1413.35140          1235.17432           799.20717          1272.27927          1243.87110          1243.58387          1237.49980          1236.21721          1242.09181          1224.36650          1231.01622          1240.83847          1236.84123          1300.82603          2150.76852          1640.82309          1231.93258          1265.48528          1237.95629          1235.44026          1235.27968          1240.30383          1240.30513          1241.38265          1231.40961          1857.90085          1234.66082          1241.34002          1234.90625          1231.84413          1241.47719          1273.27696          1242.19633          1216.93350           687.82713          1934.72555          1230.74949          1239.46095          1235.45159          1242.63458          1231.59892           699.47633          1318.25272          1231.34350          1231.27215          1230.79562          1231.10017          1233.28769          1231.30777          1232.25246          1204.51976          1246.63491          1235.46091          1231.64493          1237.50639          1163.72992          1237.98213          1239.51905          1231.38775          1238.14243          2520.38832          1238.86831          1243.81426          1058.18959           821.60276          1679.53178          1231.04255          1191.62549          2053.88674          1244.03323          1240.16862          1231.06145          1443.64778          1231.37702          1231.10189          1231.96369          1244.46730          1083.20817           389.30137          1238.07382          1242.86098          1247.37624          1624.86659          1235.43999          2285.72766          1263.39912          1231.10442          1236.18354           343.12965          1236.74134           914.58386          1271.16466          1390.08029          1239.50318          1109.91899          1226.92502          1314.23126          1240.24805          1625.92653          1231.02033           474.53692          1240.15124          1325.22057          2839.16891          1150.58486          1242.96297           876.16312          1241.27707          1265.15824          1247.64014          1278.21525           780.20206          1238.76962          1232.36129          1272.67352           644.93276          1238.65082          1233.53492           946.32309           919.84643          1314.86426          1231.14636           522.18721          1216.79102          1180.54722          1231.83536          1239.65495          1239.17356          1239.17121          2412.38985          1231.11267          1239.69672          1239.80975          1238.77934          1233.51767          1236.18811          1231.00850          1230.97899          1227.60365          1235.78010          2453.77872          1240.25709          1233.99611          1236.58247          1250.05608          1231.95584          1164.02802          1231.06337          1234.43554          1232.69809          1238.51462          1231.33881          1231.02077          1241.18846          1110.59094          1912.56414          1204.50989          1262.44391          1238.96778          1348.99056          1217.49551          1231.01636          1231.65875          1240.56090          1237.59557          1231.34345          1237.53718           941.73016          1233.37339          1237.89662          1231.10865          1260.68928          1250.18988          1232.08067          1231.25141          1214.77765          1465.54760          2058.67814          1172.99765          1242.58054          1211.31607          1242.35535          1691.35246          1231.19366          1240.54746          1237.87115          1357.39572          1228.89196          1231.75727          1235.61127          1303.21835          1150.42646          1231.00872          1230.92815          1234.88604          1249.55510          1239.33426          1231.03828          1192.06973          1240.44872          1207.17886          2647.54912          1253.11488          1239.31295          1243.23149          1237.91974          1243.50424           640.72761          1232.74700          1240.80374          1454.93338          1242.73612          3877.62748          1208.81605          1231.31232          1231.17135          1231.34757           621.84879           968.44149          1235.33969          1106.54881          1234.70566          1331.67380          1103.99068          1202.32466          1284.80683          1241.46793          1230.94364          1127.66763          1228.63653          1460.88970          1231.35429          1242.79889          1248.01960          1277.49560          1239.03091          1229.34827          1316.08901          2312.37412           748.64240          1260.54200          1235.80941          1228.95126          1234.94547          1229.20119          1230.84754          1241.87908          1238.27756          1230.98941          1262.59872          1238.49635          1230.91549          1231.16620          1343.59773           904.12241          1237.90034          1237.15389          1235.80765          1230.78133          1231.28835          1228.90778          1247.13761          1234.08934           606.27575          1234.20893          1241.20759           858.78399          1249.13299           612.55604          1231.36673          1267.68661          1233.19276          1233.039