# vtk DataFile Version 3.0
Output from R2
ASCII
DATASET UNSTRUCTURED_GRID
POINTS       5984 double
    -7.69000  2968.10000   0.
     0.00000  2968.10000   0.
     1.54000  2966.60000   0.
     3.08000  2964.90000   0.
     4.61000  2964.10000   0.
     6.15000  2963.30000   0.
     7.69000  2962.60000   0.
     9.23000  2961.50000   0.
    10.76000  2960.70000   0.
    12.30000  2960.00000   0.
    13.84000  2959.30000   0.
    15.38000  2958.70000   0.
    16.91000  2958.10000   0.
    18.45000  2957.30000   0.
    19.99000  2956.60000   0.
    21.52000  2955.80000   0.
    23.06000  2955.00000   0.
    24.60000  2954.30000   0.
    26.14000  2953.50000   0.
    27.68000  2952.80000   0.
    29.21000  2951.90000   0.
    30.75000  2951.10000   0.
    32.29000  2950.20000   0.
    33.83000  2949.50000   0.
    35.36000  2948.70000   0.
    36.90000  2948.10000   0.
    38.44000  2947.30000   0.
    39.98000  2946.70000   0.
    41.51000  2946.10000   0.
    43.05000  2945.50000   0.
    44.59000  2945.10000   0.
    46.13000  2944.50000   0.
    47.66000  2944.10000   0.
    49.20000  2943.60000   0.
    50.74000  2943.40000   0.
    52.28000  2943.00000   0.
    53.81000  2942.50000   0.
    55.35000  2942.10000   0.
    56.89000  2941.60000   0.
    58.43000  2941.00000   0.
    59.96000  2940.60000   0.
    61.50000  2940.10000   0.
    63.04000  2939.50000   0.
    64.58000  2939.10000   0.
    66.11000  2939.20000   0.
    67.65000  2939.20000   0.
    69.19000  2939.10000   0.
    70.73000  2938.90000   0.
    72.26000  2938.60000   0.
    73.80000  2938.30000   0.
    75.34000  2938.50000   0.
    76.88000  2938.70000   0.
    78.41000  2938.60000   0.
    79.95000  2938.80000   0.
    81.49000  2938.90000   0.
    83.03000  2939.10000   0.
    84.56000  2939.10000   0.
    92.25000  2939.10000   0.
    -7.69000  2960.92000   0.
    -2.14000  2960.92000   0.
     3.42000  2957.55000   0.
     8.97000  2954.51000   0.
    14.52000  2951.86000   0.
    20.07000  2949.38000   0.
    25.63000  2946.59000   0.
    31.18000  2943.67000   0.
    36.73000  2940.99000   0.
    42.28000  2938.62000   0.
    47.83000  2936.87000   0.
    53.39000  2935.46000   0.
    58.94000  2933.69000   0.
    64.49000  2931.95000   0.
    70.04000  2931.81000   0.
    75.60000  2931.36000   0.
    81.15000  2931.70000   0.
    86.70000  2931.92000   0.
    92.25000  2931.92000   0.
  -430.51000  2968.10000   0.
  -430.51000  -260.87000   0.
   515.07000  2939.10000   0.
   515.07000  -260.87000   0.
    -6.92100  2968.10000   0.
    -6.15200  2968.10000   0.
    -5.38300  2968.10000   0.
    -4.61400  2968.10000   0.
    -3.84500  2968.10000   0.
    -3.07600  2968.10000   0.
    -2.30700  2968.10000   0.
    -1.53800  2968.10000   0.
    -0.76900  2968.10000   0.
     0.51333  2967.60000   0.
     1.02667  2967.10000   0.
     2.05333  2966.03333   0.
     2.56667  2965.46667   0.
     3.59000  2964.63333   0.
     4.10000  2964.36667   0.
     5.12333  2963.83333   0.
     5.63667  2963.56667   0.
     6.66333  2963.06667   0.
     7.17667  2962.83333   0.
     8.20333  2962.23333   0.
     8.71667  2961.86667   0.
     9.74000  2961.23333   0.
    10.25000  2960.96667   0.
    11.27333  2960.46667   0.
    11.78667  2960.23333   0.
    12.81333  2959.76667   0.
    13.32667  2959.53333   0.
    14.35333  2959.10000   0.
    14.86667  2958.90000   0.
    15.89000  2958.50000   0.
    16.40000  2958.30000   0.
    17.42333  2957.83333   0.
    17.93667  2957.56667   0.
    18.96333  2957.06667   0.
    19.47667  2956.83333   0.
    20.50000  2956.33333   0.
    21.01000  2956.06667   0.
    22.03333  2955.53333   0.
    22.54667  2955.26667   0.
    23.57333  2954.76667   0.
    24.08667  2954.53333   0.
    25.11333  2954.03333   0.
    25.62667  2953.76667   0.
    26.65333  2953.26667   0.
    27.16667  2953.03333   0.
    28.19000  2952.50000   0.
    28.70000  2952.20000   0.
    29.72333  2951.63333   0.
    30.23667  2951.36667   0.
    31.26333  2950.80000   0.
    31.77667  2950.50000   0.
    32.80333  2949.96667   0.
    33.31667  2949.73333   0.
    34.34000  2949.23333   0.
    34.85000  2948.96667   0.
    35.87333  2948.50000   0.
    36.38667  2948.30000   0.
    37.41333  2947.83333   0.
    37.92667  2947.56667   0.
    38.95333  2947.10000   0.
    39.46667  2946.90000   0.
    40.49000  2946.50000   0.
    41.00000  2946.30000   0.
    42.02333  2945.90000   0.
    42.53667  2945.70000   0.
    43.56333  2945.36667   0.
    44.07667  2945.23333   0.
    45.10333  2944.90000   0.
    45.61667  2944.70000   0.
    46.64000  2944.36667   0.
    47.15000  2944.23333   0.
    48.17333  2943.93333   0.
    48.68667  2943.76667   0.
    49.71333  2943.53333   0.
    50.22667  2943.46667   0.
    51.25333  2943.26667   0.
    51.76667  2943.13333   0.
    52.79000  2942.83333   0.
    53.30000  2942.66667   0.
    54.32333  2942.36667   0.
    54.83667  2942.23333   0.
    55.86333  2941.93333   0.
    56.37667  2941.76667   0.
    57.40333  2941.40000   0.
    57.91667  2941.20000   0.
    58.94000  2940.86667   0.
    59.45000  2940.73333   0.
    60.47333  2940.43333   0.
    60.98667  2940.26667   0.
    62.01333  2939.90000   0.
    62.52667  2939.70000   0.
    63.55333  2939.36667   0.
    64.06667  2939.23333   0.
    65.34500  2939.15000   0.
    66.88000  2939.20000   0.
    68.42000  2939.15000   0.
    69.70333  2939.03333   0.
    70.21667  2938.96667   0.
    71.24000  2938.80000   0.
    71.75000  2938.70000   0.
    72.77333  2938.50000   0.
    73.28667  2938.40000   0.
    74.31333  2938.36667   0.
    74.82667  2938.43333   0.
    75.85333  2938.56667   0.
    76.36667  2938.63333   0.
    77.64500  2938.65000   0.
    78.92333  2938.66667   0.
    79.43667  2938.73333   0.
    80.72000  2938.85000   0.
    82.00333  2938.96667   0.
    82.51667  2939.03333   0.
    83.79500  2939.10000   0.
    85.32900  2939.10000   0.
    86.09800  2939.10000   0.
    86.86700  2939.10000   0.
    87.63600  2939.10000   0.
    88.40500  2939.10000   0.
    89.17400  2939.10000   0.
    89.94300  2939.10000   0.
    90.71200  2939.10000   0.
    91.48100  2939.10000   0.
    -6.30250  2960.92000   0.
    -4.91500  2960.92000   0.
    -3.52750  2960.92000   0.
    -1.02800  2960.24600   0.
     0.08400  2959.57200   0.
     1.19600  2958.89800   0.
     2.30800  2958.22400   0.
     4.53000  2956.94200   0.
     5.64000  2956.33400   0.
     6.75000  2955.72600   0.
     7.86000  2955.11800   0.
    10.35750  2953.84750   0.
    11.74500  2953.18500   0.
    13.13250  2952.52250   0.
    15.90750  2951.24000   0.
    17.29500  2950.62000   0.
    18.68250  2950.00000   0.
    21.18200  2948.82200   0.
    22.29400  2948.26400   0.
    23.40600  2947.70600   0.
    24.51800  2947.14800   0.
    26.74000  2946.00600   0.
    27.85000  2945.42200   0.
    28.96000  2944.83800   0.
    30.07000  2944.25400   0.
    32.56750  2943.00000   0.
    33.95500  2942.33000   0.
    35.34250  2941.66000   0.
    38.11750  2940.39750   0.
    39.50500  2939.80500   0.
    40.89250  2939.21250   0.
    43.66750  2938.18250   0.
    45.05500  2937.74500   0.
    46.44250  2937.30750   0.
    49.22000  2936.51750   0.
    50.61000  2936.16500   0.
    52.00000  2935.81250   0.
    54.77750  2935.01750   0.
    56.16500  2934.57500   0.
    57.55250  2934.13250   0.
    60.32750  2933.25500   0.
    61.71500  2932.82000   0.
    63.10250  2932.38500   0.
    65.87750  2931.91500   0.
    67.26500  2931.88000   0.
    68.65250  2931.84500   0.
    71.43000  2931.69750   0.
    72.82000  2931.58500   0.
    74.21000  2931.47250   0.
    76.98750  2931.44500   0.
    78.37500  2931.53000   0.
    79.76250  2931.61500   0.
    82.53750  2931.75500   0.
    83.92500  2931.81000   0.
    85.31250  2931.86500   0.
    88.08750  2931.92000   0.
    89.47500  2931.92000   0.
    90.86250  2931.92000   0.
    -7.69000  2967.35264   0.
    -7.69000  2966.52748   0.
    -7.69000  2965.61644   0.
    -7.69000  2964.61056   0.
    -7.69000  2963.49998   0.
    -7.69000  2962.27381   0.
    92.25000  2938.35264   0.
    92.25000  2937.52748   0.
    92.25000  2936.61644   0.
    92.25000  2935.61056   0.
    92.25000  2934.49998   0.
    92.25000  2933.27381   0.
    -8.49328  2968.10000   0.
    -9.37122  2968.10000   0.
   -10.33076  2968.10000   0.
   -11.37949  2968.10000   0.
   -12.52568  2968.10000   0.
   -13.77840  2968.10000   0.
   -15.14756  2968.10000   0.
   -16.64397  2968.10000   0.
   -18.27946  2968.10000   0.
   -20.06696  2968.10000   0.
   -22.02060  2968.10000   0.
   -24.15581  2968.10000   0.
   -26.48948  2968.10000   0.
   -29.04004  2968.10000   0.
   -31.82766  2968.10000   0.
   -34.87437  2968.10000   0.
   -38.20425  2968.10000   0.
   -41.84362  2968.10000   0.
   -45.82125  2968.10000   0.
   -50.16857  2968.10000   0.
   -54.91994  2968.10000   0.
   -60.11292  2968.10000   0.
   -65.78855  2968.10000   0.
   -71.99170  2968.10000   0.
   -78.77138  2968.10000   0.
   -86.18119  2968.10000   0.
   -94.27968  2968.10000   0.
  -103.13088  2968.10000   0.
  -112.80473  2968.10000   0.
  -123.37771  2968.10000   0.
  -134.93337  2968.10000   0.
  -147.56304  2968.10000   0.
  -161.36656  2968.10000   0.
  -176.45302  2968.10000   0.
  -192.94166  2968.10000   0.
  -210.96281  2968.10000   0.
  -230.65890  2968.10000   0.
  -252.18562  2968.10000   0.
  -275.71308  2968.10000   0.
  -301.42726  2968.10000   0.
  -329.53140  2968.10000   0.
  -360.24763  2968.10000   0.
  -393.81871  2968.10000   0.
  -430.51000  2929.65988   0.
  -430.51000  2891.21976   0.
  -430.51000  2852.77964   0.
[...]
POINT_DATA      5984
CELL_DATA     11506
SCALARS Resistivity(ohm.m) double 1
LOOKUP_TABLE default
          1218.86202          1218.78178          1127.23554          1216.34681          3411.79607          1216.31397          1218.19702          1218.24361          2088.34984          1172.08074          1197.75509          1218.56380          1127.02920          1220.82659          1448.67810          1218.79127          1219.81236          1197.30638          1217.09616          1217.07484          1217.05334          1218.79530          1218.74038           987.95779          1218.10364          1218.15803          1022.64412          1219.77152          1217.82606          1219.67832          1217.12807          1226.45475          1217.21857          1219.79775          2931.80525           927.00186          1215.76529          1741.05930          1217.24274          1215.09011          1218.13512          1219.15029          1219.10931          1257.36582          1142.34646          1215.06705          1221.45469          1226.46362          1215.64664          1220.80562          1216.31312          1221.42121          1218.12189          1218.91673          1217.77790          2005.98802          2430.45406          1250.27346          1217.81481          1158.28526          1217.23131          1218.48989          1218.48592          1217.82669          1218.83140          1207.09419          1217.77507          3290.53644          2890.11380          1217.37391          1217.20695          1177.89073          1217.41076           930.08898          1219.22288          1220.08850          1218.16675          1221.48426          3661.33371          1221.81757          1217.92253          1220.11334          1918.58031          1214.37693          1226.86301          1167.31407          1170.59496          1216.39401          1215.22850          1221.83023          1284.80664          1219.27695          1217.87612          1989.65963          1228.72734          1218.58729          1149.06837          1220.52211          1217.93081          1305.82826          1218.44770          1217.97335          1299.52943          1192.44708          1216.19015          1221.83518          1432.15847          1218.18764          1217.76946          1218.63622          1235.99994          1215.70767          1221.78750           518.59267          1218.22176          1218.20671          1208.87812          1218.18180          2217.20165           940.29015          1179.74106          1221.88080          1393.28547          1221.83708          1220.80671          1390.28838          1162.57581          1218.72199          1382.64276          1235.80938          1215.89562          1217.22954          1164.01782          1214.69588          1185.52134          1215.68511          1223.28618           865.88523          1227.60550          1206.99927          1220.72828          1218.60302          1217.65111          1207.33305          1217.92032          1157.54676          1217.89129          1216.16526          1288.68023          2261.47161          1217.42794          1216.03379          1148.96279          3940.66084           829.30444          1216.82946          1218.17405          1287.96949          1236.75462          1218.63692          1217.98307          1201.71224          1218.18604           556.21031          1221.31004          1221.27114          1222.73481           750.89881          1555.99941          1221.05639          1805.41534           807.96933          1217.54575          1217.99308          1219.73662          1217.85619          1290.60860          1928.80058          1314.69930          1218.01024          1164.01084          1583.75104          1034.21763          1219.19706           529.08656          1219.66844           472.53755          1221.65654          1136.81403          1219.11480          1058.85324          4529.80220          1220.55018          1665.56534           617.05796          1208.64563          1214.75708          1216.91869          1029.62057          2051.10442          1224.27331          2016.37238          1202.08951          2869.78586           671.23973          1187.30374          1209.42984          1216.97003           682.16679          1217.79345          1381.70741          1325.22812          1440.16642          1312.44156          1218.34315          1156.03425           716.33753          1238.18105          1233.88063          1386.11504          1217.86723          1217.31068          2035.38750          1217.83234          1217.97797          4263.49937          1211.48869           854.30840          1284.18038           640.18305          1133.82040          1889.88697          1287.06012          1278.17997          1221.50739          1222.03999           969.65138          1213.99686          1221.50324          1367.39787          1219.31105          1217.95466           940.80739          1217.79340          3874.13054          1217.82226          1479.10424          1212.62512          1208.22772          1178.34756          1178.02381          1212.45979          1220.52510          1217.07094          1103.95162          1310.64859          1177.03351          1220.68672          1212.85918          1216.98540          1216.81949          1167.38888          1216.89308          1217.22547          1183.47725          1516.96136          1210.11720          1203.44627          1218.50328          1218.33081          1275.85583          1217.29427          2205.33780           883.69521          1221.49785          1219.77147          1181.18582          1217.37057          1212.35981          1218.43030          1244.61920          1222.02280          1215.76166          1221.01474          2987.03182          1217.93869          1306.42604          1220.87167          1216.71582          1221.08301          1221.89874          1217.94822          1198.99623          2205.46583           962.11147           537.22279          1170.12539          1216.10756          1220.96863          1227.62217          1216.21892          1219.12384          1218.18342          1200.89836          1219.18797          1217.79997          1218.91525          1218.04879          1217.98414          1218.80351          1218.04173          1217.52322          1219.56821          1165.71057          1160.82519          1217.71687          1181.22742          1219.00177          1161.90628          1220.70247          1213.38914          1940.13836          1219.61599          1216.63261          1218.46151          1217.59973          1218.80676          1411.71437          1217.37351          1282.23024          1216.85418          1220.89376          1185.60433          1645.00121          1306.28292          1223.70216           882.60010          1379.87668          1218.05558          1184.22034          1220.17499          1101.82067          1128.61601          1220.91350          1220.89928          1216.89539           473.75441          1164.23864          1163.36403          1156.30747          1218.85473          1217.69931          5020.29413          1218.95693          1218.28115          1218.82905          1242.06307          1214.20973          1216.20165          1214.75640          1208.11578          1140.45893          1193.02965           421.39199          1275.30554          1198.44150          1220.13047          1217.95211          1353.07588          1221.41889          1077.64355          1219.12535          1278.90053          1217.24399          1221.82385          1217.24635          1219.67341          1214.40696          1218.27714          1217.34398          1220.25780          1214.46753          1219.72467          1217.99796          1175.48825          1218.69352          1246.64696          1177.14445          1815.14386          1307.20495          1013.60822           920.70475          1217.26925          1217.28700          1222.38534          1221.11203          1095.72748          1297.81314          1218.18735          2304.78469          1218.18939          1220.38777           963.36472          1217.92402          1194.40282          1217.10180          1214.00648          1273.31938          1149.59418          1217.01062          1544.63456          1218.69855          1220.90788          1220.81105          1302.25597          3729.47844          1228.30962          1281.42843          1218.15933          1216.97065          1220.43000          1217.33247          1214.15648          2939.70372          1193.29449          1220.37743          1217.28958          1221.01554          1897.67077          1217.29561          1219.09936          1187.90184          1214.89160          1217.82692          1216.96074          1217.24214          1219.58364          1214.43364          1215.53107          1185.22975          1227.26599          1218.30075          1217.76108          1327.40540          1168.43022          1215.53108          1123.80469          1218.34469          1931.86888          1217.76014          1247.67150          1064.48773          1202.53740           606.25412          1218.46284          1281.32225          4220.93455          1223.20362          1215.46647          1218.29849          1030.93673          1198.04313          1218.48302          1221.90377          1217.83158          1312.47676          1319.61636          1213.07534          1072.17317          1200.47781          1724.46806          1223.87176           885.84177          1164.64522          1174.23647          1245.58507          1178.25408          1388.12455          1215.50161          1219.52353          1867.67182          1158.09055          1171.30480           794.52457          1214.70900          1213.06628          1220.99447          1218.42906          1221.54861           484.78953          1218.99138          1218.08772          1220.70944          1220.65334          1163.36584          1219.24967          1221.23789          1120.15704           987.60919          1215.51157          1218.26636          1879.54851          1215.44022          1218.03806          1221.26842          1054.15321          1218.09464          1208.84141          1221.60640          1218.70738          1219.44446          1165.42086          1196.30844          1193.36528           515.37650          1315.25701           770.03308          1201.87732          1213.35293          1215.06393          1099.72964          1225.83064          1216.46397          1217.95509          1218.25299           969.09104          1205.00875          1075.27937           414.93503          1218.55681          1400.70142          1199.56841          1229.09099          1213.16051          1221.55740          1174.74026          2143.49810          1220.27875          1218.84883          1217.72771          1217.01189          1002.76122          1218.38369          1217.30101          1217.65725          1076.76153          1220.03789          1168.83811          1018.98340          1175.85307          1218.19448          1161.93194          1217.30419          1218.20315          1217.52098          1177.82937          1157.17127          1477.53222          1151.27902          1218.18172           851.64295           943.48950          1218.16033          1221.13032          1211.43162          1221.98666          1207.84972          1221.42929          1352.38712          1219.00014          1281.57488          1218.65552          1220.66624          2262.05388          1218.24627          1218.59911          1227.16043          1560.21459          1218.51852          1217.99258          1227.31273          1217.71013          1220.98280          1348.95943          1213.67924          1219.67589          1219.48454          1218.88950           630.89392          1220.44808          1185.55457          1121.35241          1296.62172          1218.69229          1785.52172          1217.21833           836.16838          1190.62320          1216.92467          1292.00141          1217.24289           643.15680          1218.17184          1184.39911          2378.76435          1128.31843          1218.72405          1245.84991          1165.92000          1116.20837          1202.00798           938.45251          1201.27162          1218.89101          1088.20349          1287.36498           436.94630          1201.66453          1220.63888           723.82774          1219.59601           490.63876          1220.12021          1038.13616          1215.66054          1218.43101          1218.72467          1218.18080          1217.98248          1216.86136          1258.87753          1163.76639          1075.47353          1216.49393          1218.39059          1216.43571          1715.81947          1214.72349          1216.35850          1217.46920          1217.48851          1217.47738           604.81613          1247.89291          1217.21691          1218.78142          1218.89138          1194.95964          1216.92382          1220.17656          1216.99025          1211.15487          1221.85959          1220.10111          1225.75475          1155.42803          1217.94821           896.09306          1220.90277          1226.37649          1216.97991          1218.50351          1218.65432          1219.89999          1218.79132          1216.10831          1220.84951          1199.91369          1217.97447          1202.37766          1218.04923          1218.07332          1224.97777          1218.60811          1211.31056          1217.61482          1680.13411          1218.14515          1747.53467          1321.45882          1218.33184          1230.96589          1219.07155          1253.69118          1218.18607          1216.86366          1180.26726          1217.78060           443.08817          1217.58171          1172.16383          1153.49676          1161.46515          1222.38331          1189.13962          1221.47158          1219.96548          1218.18799          1211.31678          1167.23960          1998.51639          1219.32053           436.05832          1152.14595          1111.68831          1819.59198          1217.64645          1178.80823           753.36217          1217.98591          1218.73557          1217.69662          1218.76656          1215.41443          1217.08394          2773.50868          1142.60439          1217.39117          1221.21642           844.01496           840.05357          1218.95304          1424.17343          1217.23546           746.47428          1252.54440          1215.53807          1211.89806          1218.16951          1217.29744          1213.03715          1197.26013          1220.58880          1216.79105          1217.71847          1287.59917          2178.94693          1702.25426          1218.62392          1241.97764          1216.28405          1217.25573          1217.44221          1212.11988          1207.78662          1216.70645          1181.79973          1895.06165          1217.86301          1216.85820          1217.72273          1219.28693          1217.33124          1162.39392          1213.83941          1167.23271           661.65813          1946.42550          1221.02515          1215.89814          1217.23772          1214.07572          1219.15919           680.90585          1310.58363          1183.45085          1220.21769          1221.03234          1220.57269          1218.37725          1157.35855          1218.16037          1103.58024          1221.66955          1217.21808          1219.30647          1218.15008          1071.03983          1216.90364          1206.33158          1219.72779          1217.07869          2521.28242          1203.35571          1211.43838           976.09435           796.30072          1708.29368          1220.79126          1172.07923          2077.58276          1213.14656          1208.34217          1219.63317          1474.82633          1221.78620          1219.59282          1218.70270          1215.94863          1080.05987           420.42475          1216.20374          1216.54943          1221.69878          1652.70641          1217.24866          2317.98806          1239.72747          1220.84777          1218.07703           388.40923          1217.98357           869.52968          1249.74622          1395.78114          1216.00521          1110.53947          1179.79619          1303.96637          1208.87456          1662.12700          1221.04598           450.58509          1217.22067          1317.94213          2865.89056          1051.20738          1216.87100           796.35565          1209.56230          1241.86987          1222.08631          1169.28056           732.24060          1215.78972          1218.92468          1251.81839           651.29309          1215.94409          1218.34423           934.95311           840.22927          1315.49310          1220.40450           515.34107          1164.97978          1124.34374          1190.47338          1214.11849          1216.67486          1214.86417          2420.60187          1221.53850          1214.49922          1214.52271          1218.09382          1217.77199          1196.34152          1220.62658          1220.88623          1176.65672          1217.43983          2457.32787          1213.80935          1217.45485          1217.97291          1221.31942          1218.46308          1167.62762          1220.80677          1217.92332          1218.92103          1218.35433          1219.71244          1219.77869          1209.79775          1022.55110          1888.42628          1144.63150          1245.10781          1218.10860          1349.99217          1174.62545          1219.81916          1218.99268          1213.47318          1217.06763          1221.50938          1217.02105           875.61982          1218.38235          1200.69781          1180.46431          1236.14690          1241.32624          1218.50085          1219.49601          1168.00099          1481.98824          2091.15586          1100.17036          1217.63561          1126.63698          1217.64850          1678.07957          1220.38503          1212.05126          1217.81651          1357.22156          1184.85336          1193.39859          1217.47186          1295.87452          1132.90675          1220.48956          1221.23084          1217.62160          1224.16375          1215.07178          1220.53270          1179.41665          1212.05067          1218.35811          2655.91871          1226.95652          1215.24440          1211.43361          1218.27887          1215.18821           641.91803          1192.46166          1215.11353          1482.23589          1215.82620          3768.48556          1153.53255          1219.78569          1221.04112          1219.71980           620.38603           930.01938          1217.24423          1086.30687          1217.72744          1326.19823          1059.45338          1145.70957          1267.18745          1213.08655          1220.46685          1032.83967          1159.90128          1476.46643          1219.69716          1218.98224          1222.58621          1167.49829          1216.74601          1179.09622          1306.32612          2332.38054           703.11361          1159.46905          1218.14333          1178.80080          1217.75334          1180.05119          1179.81477          1215.18520          1217.52172          1221.49204          1238.75955          1217.53993          1220.39599          1220.38012          1340.63679           821.75997          1216.25539          1217.13833          1218.12830          1181.04691          1222.03175          1180.41817          1219.69447          1218.14205           569.71355          1218.16238          1218.32776           785.71823          1222.13907           581.25622          1219.54088          1170.42619          1188.04300          1195.873