# vtk DataFile Version 3.0
Output from R2
ASCII
DATASET UNSTRUCTURED_GRID
POINTS       5984 double
    -7.69000  2968.10000   0.
     0.00000  2968.10000   0.
     1.54000  2966.60000   0.
     3.08000  2964.90000   0.
     4.61000  2964.10000   0.
     6.15000  2963.30000   0.
     7.69000  2962.60000   0.
     9.23000  2961.50000   0.
    10.76000  2960.70000   0.
    12.30000  2960.00000   0.
    13.84000  2959.30000   0.
    15.38000  2958.70000   0.
    16.91000  2958.10000   0.
    18.45000  2957.30000   0.
    19.99000  2956.60000   0.
    21.52000  2955.80000   0.
    23.06000  2955.00000   0.
    24.60000  2954.30000   0.
    26.14000  2953.50000   0.
    27.68000  2952.80000   0.
    29.21000  2951.90000   0.
    30.75000  2951.10000   0.
    32.29000  2950.20000   0.
    33.83000  2949.50000   0.
    35.36000  2948.70000   0.
    36.90000  2948.10000   0.
    38.44000  2947.30000   0.
    39.98000  2946.70000   0.
    41.51000  2946.10000   0.
    43.05000  2945.50000   0.
    44.59000  2945.10000   0.
    46.13000  2944.50000   0.
    47.66000  2944.10000   0.
    49.20000  2943.60000   0.
    50.74000  2943.40000   0.
    52.28000  2943.00000   0.
    53.81000  2942.50000   0.
    55.35000  2942.10000   0.
    56.89000  2941.60000   0.
    58.43000  2941.00000   0.
    59.96000  2940.60000   0.
    61.50000  2940.10000   0.
    63.04000  2939.50000   0.
    64.58000  2939.10000   0.
    66.11000  2939.20000   0.
    67.65000  2939.20000   0.
    69.19000  2939.10000   0.
    70.73000  2938.90000   0.
    72.26000  2938.60000   0.
    73.80000  2938.30000   0.
    75.34000  2938.50000   0.
    76.88000  2938.70000   0.
    78.41000  2938.60000   0.
    79.95000  2938.80000   0.
    81.49000  2938.90000   0.
    83.03000  2939.10000   0.
    84.56000  2939.10000   0.
    92.25000  2939.10000   0.
    -7.69000  2960.92000   0.
    -2.14000  2960.92000   0.
     3.42000  2957.55000   0.
     8.97000  2954.51000   0.
    14.52000  2951.86000   0.
    20.07000  2949.38000   0.
    25.63000  2946.59000   0.
    31.18000  2943.67000   0.
    36.73000  2940.99000   0.
    42.28000  2938.62000   0.
    47.83000  2936.87000   0.
    53.39000  2935.46000   0.
    58.94000  2933.69000   0.
    64.49000  2931.95000   0.
    70.04000  2931.81000   0.
    75.60000  2931.36000   0.
    81.15000  2931.70000   0.
    86.70000  2931.92000   0.
    92.25000  2931.92000   0.
  -430.51000  2968.10000   0.
  -430.51000  -260.87000   0.
   515.07000  2939.10000   0.
   515.07000  -260.87000   0.
    -6.92100  2968.10000   0.
    -6.15200  2968.10000   0.
    -5.38300  2968.10000   0.
    -4.61400  2968.10000   0.
    -3.84500  2968.10000   0.
    -3.07600  2968.10000   0.
    -2.30700  2968.10000   0.
    -1.53800  2968.10000   0.
    -0.76900  2968.10000   0.
     0.51333  2967.60000   0.
     1.02667  2967.10000   0.
     2.05333  2966.03333   0.
     2.56667  2965.46667   0.
     3.59000  2964.63333   0.
     4.10000  2964.36667   0.
     5.12333  2963.83333   0.
     5.63667  2963.56667   0.
     6.66333  2963.06667   0.
     7.17667  2962.83333   0.
     8.20333  2962.23333   0.
     8.71667  2961.86667   0.
     9.74000  2961.23333   0.
    10.25000  2960.96667   0.
    11.27333  2960.46667   0.
    11.78667  2960.23333   0.
    12.81333  2959.76667   0.
    13.32667  2959.53333   0.
    14.35333  2959.10000   0.
    14.86667  2958.90000   0.
    15.89000  2958.50000   0.
    16.40000  2958.30000   0.
    17.42333  2957.83333   0.
    17.93667  2957.56667   0.
    18.96333  2957.06667   0.
    19.47667  2956.83333   0.
    20.50000  2956.33333   0.
    21.01000  2956.06667   0.
    22.03333  2955.53333   0.
    22.54667  2955.26667   0.
    23.57333  2954.76667   0.
    24.08667  2954.53333   0.
    25.11333  2954.03333   0.
    25.62667  2953.76667   0.
    26.65333  2953.26667   0.
    27.16667  2953.03333   0.
    28.19000  2952.50000   0.
    28.70000  2952.20000   0.
    29.72333  2951.63333   0.
    30.23667  2951.36667   0.
    31.26333  2950.80000   0.
    31.77667  2950.50000   0.
    32.80333  2949.96667   0.
    33.31667  2949.73333   0.
    34.34000  2949.23333   0.
    34.85000  2948.96667   0.
    35.87333  2948.50000   0.
    36.38667  2948.30000   0.
    37.41333  2947.83333   0.
    37.92667  2947.56667   0.
    38.95333  2947.10000   0.
    39.46667  2946.90000   0.
    40.49000  2946.50000   0.
    41.00000  2946.30000   0.
    42.02333  2945.90000   0.
    42.53667  2945.70000   0.
    43.56333  2945.36667   0.
    44.07667  2945.23333   0.
    45.10333  2944.90000   0.
    45.61667  2944.70000   0.
    46.64000  2944.36667   0.
    47.15000  2944.23333   0.
    48.17333  2943.93333   0.
    48.68667  2943.76667   0.
    49.71333  2943.53333   0.
    50.22667  2943.46667   0.
    51.25333  2943.26667   0.
    51.76667  2943.13333   0.
    52.79000  2942.83333   0.
    53.30000  2942.66667   0.
    54.32333  2942.36667   0.
    54.83667  2942.23333   0.
    55.86333  2941.93333   0.
    56.37667  2941.76667   0.
    57.40333  2941.40000   0.
    57.91667  2941.20000   0.
    58.94000  2940.86667   0.
    59.45000  2940.73333   0.
    60.47333  2940.43333   0.
    60.98667  2940.26667   0.
    62.01333  2939.90000   0.
    62.52667  2939.70000   0.
    63.55333  2939.36667   0.
    64.06667  2939.23333   0.
    65.34500  2939.15000   0.
    66.88000  2939.20000   0.
    68.42000  2939.15000   0.
    69.70333  2939.03333   0.
    70.21667  2938.96667   0.
    71.24000  2938.80000   0.
    71.75000  2938.70000   0.
    72.77333  2938.50000   0.
    73.28667  2938.40000   0.
    74.31333  2938.36667   0.
    74.82667  2938.43333   0.
    75.85333  2938.56667   0.
    76.36667  2938.63333   0.
    77.64500  2938.65000   0.
    78.92333  2938.66667   0.
    79.43667  2938.73333   0.
    80.72000  2938.85000   0.
    82.00333  2938.96667   0.
    82.51667  2939.03333   0.
    83.79500  2939.10000   0.
    85.32900  2939.10000   0.
    86.09800  2939.10000   0.
    86.86700  2939.10000   0.
    87.63600  2939.10000   0.
    88.40500  2939.10000   0.
    89.17400  2939.10000   0.
    89.94300  2939.10000   0.
    90.71200  2939.10000   0.
    91.48100  2939.10000   0.
    -6.30250  2960.92000   0.
    -4.91500  2960.92000   0.
    -3.52750  2960.92000   0.
    -1.02800  2960.24600   0.
     0.08400  2959.57200   0.
     1.19600  2958.89800   0.
     2.30800  2958.22400   0.
     4.53000  2956.94200   0.
     5.64000  2956.33400   0.
     6.75000  2955.72600   0.
     7.86000  2955.11800   0.
    10.35750  2953.84750   0.
    11.74500  2953.18500   0.
    13.13250  2952.52250   0.
    15.90750  2951.24000   0.
    17.29500  2950.62000   0.
    18.68250  2950.00000   0.
    21.18200  2948.82200   0.
    22.29400  2948.26400   0.
    23.40600  2947.70600   0.
    24.51800  2947.14800   0.
    26.74000  2946.00600   0.
    27.85000  2945.42200   0.
    28.96000  2944.83800   0.
    30.07000  2944.25400   0.
    32.56750  2943.00000   0.
    33.95500  2942.33000   0.
    35.34250  2941.66000   0.
    38.11750  2940.39750   0.
    39.50500  2939.80500   0.
    40.89250  2939.21250   0.
    43.66750  2938.18250   0.
    45.05500  2937.74500   0.
    46.44250  2937.30750   0.
    49.22000  2936.51750   0.
    50.61000  2936.16500   0.
    52.00000  2935.81250   0.
    54.77750  2935.01750   0.
    56.16500  2934.57500   0.
    57.55250  2934.13250   0.
    60.32750  2933.25500   0.
    61.71500  2932.82000   0.
    63.10250  2932.38500   0.
    65.87750  2931.91500   0.
    67.26500  2931.88000   0.
    68.65250  2931.84500   0.
    71.43000  2931.69750   0.
    72.82000  2931.58500   0.
    74.21000  2931.47250   0.
    76.98750  2931.44500   0.
    78.37500  2931.53000   0.
    79.76250  2931.61500   0.
    82.53750  2931.75500   0.
    83.92500  2931.81000   0.
    85.31250  2931.86500   0.
    88.08750  2931.92000   0.
    89.47500  2931.92000   0.
    90.86250  2931.92000   0.
    -7.69000  2967.35264   0.
    -7.69000  2966.52748   0.
    -7.69000  2965.61644   0.
    -7.69000  2964.61056   0.
    -7.69000  2963.49998   0.
    -7.69000  2962.27381   0.
    92.25000  2938.35264   0.
    92.25000  2937.52748   0.
    92.25000  2936.61644   0.
    92.25000  2935.61056   0.
    92.25000  2934.49998   0.
    92.25000  2933.27381   0.
    -8.49328  2968.10000   0.
    -9.37122  2968.10000   0.
   -10.33076  2968.10000   0.
   -11.37949  2968.10000   0.
   -12.52568  2968.10000   0.
   -13.77840  2968.10000   0.
   -15.14756  2968.10000   0.
   -16.64397  2968.10000   0.
   -18.27946  2968.10000   0.
   -20.06696  2968.10000   0.
   -22.02060  2968.10000   0.
   -24.15581  2968.10000   0.
   -26.48948  2968.10000   0.
   -29.04004  2968.10000   0.
   -31.82766  2968.10000   0.
   -34.87437  2968.10000   0.
   -38.20425  2968.10000   0.
   -41.84362  2968.10000   0.
   -45.82125  2968.10000   0.
   -50.16857  2968.10000   0.
   -54.91994  2968.10000   0.
   -60.11292  2968.10000   0.
   -65.78855  2968.10000   0.
   -71.99170  2968.10000   0.
   -78.77138  2968.10000   0.
   -86.18119  2968.10000   0.
   -94.27968  2968.10000   0.
  -103.13088  2968.10000   0.
  -112.80473  2968.10000   0.
  -123.37771  2968.10000   0.
  -134.93337  2968.10000   0.
  -147.56304  2968.10000   0.
  -161.36656  2968.10000   0.
  -176.45302  2968.10000   0.
  -192.94166  2968.10000   0.
  -210.96281  2968.10000   0.
  -230.65890  2968.10000   0.
  -252.18562  2968.10000   0.
  -275.71308  2968.10000   0.
  -301.42726  2968.10000   0.
  -329.53140  2968.10000   0.
  -360.24763  2968.10000   0.
  -393.81871  2968.10000   0.
  -430.51000  2929.65988   0.
  -430.51000  2891.21976   0.
  -430.51000  2852.77964   0.
[...]
POINT_DATA      5984
CELL_DATA     11506
SCALARS Resistivity(ohm.m) double 1
LOOKUP_TABLE default
           963.01103           963.14012           852.64908           960.70968          3527.91462           960.68919           965.69975           965.62506          2084.61162           833.59826           935.03863           962.10417           856.44607           961.44408          1227.68159           962.32925           960.84089           934.34475           960.86601           962.13269           962.22207           963.19891           963.33864           894.20601           964.59263           964.63191           802.85901           963.40371           963.44782           963.33761           961.07000           972.09004           962.43274           960.88601          3096.89469           717.14022           959.48889          1671.32873           962.53482           958.39703           965.99677           962.67659           962.82933          1019.00107           892.74707           958.46916           960.39384           972.11645           959.39303           961.45832           960.47837           960.47271           966.04648           963.11899           964.59504          1967.19828          2182.51180          1011.32804           963.45084           890.00807           962.74623           966.28264           966.31556           963.34950           963.32451           947.92960           963.26494          3385.83683          3015.75857           963.53397           962.62618           903.03815           963.60536           844.52970           964.12968           960.62092           966.83923           960.12330          3844.73018           959.52775           963.94896           960.62654          1748.91177           989.61130           972.74848           886.67927           833.00160           960.87234           958.74440           959.45064          1052.01583           964.02272           965.17414          1843.86099          1003.67151           962.50854           868.29720           961.14927           964.86143          1098.08094           962.89174           965.00333          1059.35458           927.21158           960.24807           959.28662          1209.53507           966.86847           963.36133           963.98137           985.74523           959.12247           959.27501           598.43314           963.48833           966.11728           950.29239           966.80359          2233.09162           730.65146           921.49870           959.29282          1165.78253           959.27045           961.50399          1162.23521           836.63417           962.56408          1282.26272           985.07570           967.62233           962.21102           837.00596           958.77525           868.95150           959.19435           968.04716           659.93992           973.67201           947.83690           959.96221           963.02913           963.54416           948.48540           964.17545           886.65495           964.61343           960.50959          1052.01777          2212.24049           962.69715           960.34648           871.58966          4297.39070           683.07662           961.62289           966.97502          1047.20735          1004.09329           964.06616           963.93128           947.92890           963.54425           521.37721           960.21423           960.30796           967.38962           606.59870          1366.24594           965.83770          1806.66157           625.79100           962.64443           965.64413           962.32021           965.13320          1053.28843          1875.26720          1076.46746           964.02392           880.96896          1385.13174           814.57875           962.03803           512.20161           962.75753           504.33617           960.06815           813.36125           962.90868           771.45175          4880.07915           960.88333          1466.71287           554.44554           950.03695           957.71730           962.20248           754.00847          1843.28300           969.44215          1879.19256           943.26796          2918.55480           591.80319           919.55567           951.04768           961.43924           577.92518           962.34320          1152.63360          1117.00776          1220.07437          1077.22415           962.80863           841.14649           753.86498           988.26158           982.85336          1158.10674           964.67356           962.50664          1765.35837           962.52125           964.31327          4588.75537           953.87858           651.75242          1041.81008           743.37798           925.81550          1843.34532          1045.07168          1041.04949           960.30774           959.27042           842.21134           957.19553           960.26101          1140.41311           961.83141           963.96639           753.35422           964.67772          4143.83711           964.85071          1260.11237           955.45790           949.44476           904.90560           903.31748           955.05204           961.21027           961.70643           805.30568          1073.82206           902.43424           959.98515           955.51673           962.11314           961.49547           835.08927           961.85541           963.15123           880.72636          1305.73316           960.76527           945.33259           963.14499           964.34990          1033.94916           963.33326          2615.85450           731.64168           967.09373           964.96841           842.93998           962.90865           955.12450           963.04738           996.82627           959.29930           958.90071           961.36805          3044.79123           965.16681          1067.11860           961.60941           961.67756           961.23061           959.60525           965.26008           936.99571          2607.88361           761.03380           514.77421           889.97251           959.32615           960.39752           974.21624           959.48092           962.98991           966.95622           939.93045           962.89783           964.72370           964.58916           966.00799           964.65076           962.67532           964.67832           963.90296           963.28462           899.08895           888.81491           961.78512           909.34809           962.51698           895.22755           960.88674           959.70321          1634.84759           961.67232           959.89231           966.41597           964.09571           963.43573          1186.53869           962.91409          1039.77810           961.70132           961.58373           928.59269          1580.14057          1075.44200           968.75147           782.95922          1150.46490           965.99137           868.64958           961.29703           794.65938           835.79597           960.68627           960.62730           961.73973           502.55146           838.21934           866.06908           838.90065           963.91093           963.69337          5395.61000           964.38757           964.41649           964.09549          1118.06576           957.43810           960.06610           957.69272           949.32487           881.52009           928.07359           456.28044          1040.52197           936.02696           961.36230           964.21392          1120.98804           960.20054           797.35922           962.62284          1035.95425           962.42371           959.78333           962.47300           961.53627           957.29820           965.26253           962.83326           961.22412           957.34583           962.54271           963.65669           836.89107           962.87169           999.53465           838.19329          1633.63096          1071.72674           744.79674           729.06255           963.15123           963.25693           967.21340           961.17632           892.27521          1060.92146           966.87522          2477.30421           966.84886           961.26201           767.12983           964.02913           930.03577           961.25634           956.99118          1220.01247           898.35751           962.26729          1335.88481           962.93154           959.83750           959.89230          1062.43762          3982.39472           974.77683          1070.97376           961.64236           962.23313           961.18324           963.03512           957.23867          2948.57101           928.43584           961.21294           962.64878           959.75364          1630.53226           963.03355           962.73167           920.54143           958.88560           961.90585           961.83175           962.63152           962.73108           957.34441           958.84436          1061.34538           974.71627           963.40695           964.37248          1107.44804           909.67568           958.53724           878.60786           966.51656          1776.76042           964.44044          1125.82979           771.47049           943.15378           610.53347           961.98070          1045.33980          4553.92881           968.19656           958.51404           965.61110           799.85074           935.60562           963.29889           959.55003           964.97519          1075.48100          1083.21572           955.70057           833.39127           945.60896          1551.77715           969.03564           669.69984           839.45168           896.96099           998.61627           905.49790          1160.73719           959.05809           963.28908          1922.15580           864.49112           910.84262           659.20450           958.75068           955.93759           961.39459           962.49768           960.26153           499.57491           965.18987           963.71245           961.34517           960.39341           839.78977           964.28230           960.90777           856.95148           815.73163           959.57275           961.79076          1704.89856           959.40618           963.52733           960.84154           783.77367           963.55282           950.22673           960.16413           965.38489           963.18983           832.76010           935.43268           928.77213           508.50729          1078.05972           644.25879           946.71021           956.00284           959.06009           806.02588           971.85953           959.89473           964.15476           965.69797           716.25377           950.35681           779.79510           553.34153           962.05351          1212.03801           937.58814           976.90821           955.76990           960.14322           898.39537          2193.71536           961.18571           965.03545           963.19573           961.92634           780.78973           963.30884           962.64604           964.05156           833.98418           961.06634           889.85775           829.18742           900.59551           961.67977           883.02158           962.58461           966.93482           963.17011           908.19065           843.22950          1259.09222           866.47590           966.61893           702.48553           744.55307           965.19788           959.84231           953.91869           959.48648           949.16816           959.58732          1120.83625           962.78579          1044.15072           963.35312           960.93640          2601.96680           966.00382           963.46631           973.35766          1379.92122           963.15192           963.86975           973.50833           963.18031           961.45780          1116.69554           956.41332           963.35937           962.98821           963.30891           564.95215           961.21057           916.74723           873.39387          1095.06864           964.18342          1598.94321           962.82098           659.53305           928.93450           962.19918          1123.05094           962.30284           552.07613           965.31533           914.86602          2138.54252           808.36294           963.60864           998.06411           885.05168           803.21197           941.53516           745.39892           939.95458           963.00195           803.00316          1161.09310           473.91283           941.75814           960.46856           602.31748           963.04984           495.71947           960.94703           761.12640           958.68601           964.01300           964.01869           966.92302           963.69489           962.03620          1013.35448           868.29846           918.38130           961.01680           963.98780           959.62109          1547.32692           958.63767           960.33016           963.11017           963.15800           963.06739           551.07771          1003.07650           962.52783           963.35943           963.24931           934.47643           962.15170           961.12228           962.30629           953.50841           959.71191           961.21067           971.18352           912.67655           961.75197           747.20454           961.22991           972.66129           962.36996           966.31915           965.60781           961.84938           965.06523           960.43220           961.20286          1009.30564           962.94785           941.50000           966.10394           961.51893           970.72261           965.76368           956.81967           964.02298          1603.44962           964.98046          1556.60761          1084.28467           965.31191           996.30743           963.13566          1006.71079           965.08326           961.83659           908.12429           961.17242           476.58861           962.51288           892.12714           866.70842           832.16113           966.37324           922.31143           965.29768           961.69365           966.67715           953.68946           830.75321          2072.30130           963.06675           479.94205           870.01453           803.85681          1570.27744           964.19608           841.91196           877.04698           964.43512           965.20966           964.37350           963.48087           958.50157           961.89205          2808.68695           873.36348           962.63186           959.77423           656.44610           749.53010           963.06003          1202.08970           962.25326           710.36304          1008.41399           958.71010           954.45660           966.07849           962.88208           955.60730          1077.75660           960.97547           960.27538           964.35175          1046.54170          2105.24082          1499.29820           963.34048           992.72362           960.68753           962.43362           963.05793           954.82969           948.96109           959.97669           910.41344          1766.95370           964.57518           960.21049           963.86457           964.15097           960.92048           831.13121           956.60047           898.76281           569.41899          2036.02580           961.28669           959.67429           962.25231           956.87885           962.84373           753.51471          1074.44581           913.56363           961.38938           961.24271           961.20822           965.43791           859.90925           963.52652           803.38100           965.51571           962.14439           962.89095           966.01088           791.69353           962.02781           947.12919           962.54775           962.46098          2481.74760           942.93287           954.37238           740.33342           709.75779          1513.39980           959.99995           946.77769          1942.24286           956.10993           949.84153           961.29869          1312.00276           959.30569           961.35923           963.96507           959.31922           916.16276           446.86017           960.56630           959.71166           965.86269          1453.35326           962.36129          2748.77192           989.07467           959.88366           966.21870           455.81152           965.89362           686.17371          1003.17956          1167.98061           959.78761           953.73342           911.51306          1064.25421           950.52949          1496.06993           960.33216           476.58270           961.45203          1080.23611          3325.70094           763.81598           960.08179           621.83327           951.20926           991.73309           966.31275           832.99556           747.92882           959.97694           964.80626          1005.89220           749.97458           960.16645           965.63868          1007.39802           646.31415          1093.59107           961.12793           509.12318           894.23569           858.05467           927.28612           957.86190           961.02630           959.00991          2822.06288           960.10266           958.11769           958.05519           964.53998           963.39336           932.92969           961.00719           960.41124           904.31847           963.13370          2399.58167           956.91210           962.75427           965.79509           966.59726           963.29137           992.47016           959.96160           964.75351           965.37806           965.24873           962.41690           961.16872           951.51224           764.21555          1970.68765           868.55383          1006.84608           964.28665          1121.63929           913.73687           961.13412           963.17658           956.35893           962.67004           959.53581           962.51739           843.31118           965.56113           939.14544           907.90207           984.68756          1018.28653           963.55306           961.71932           903.30818          1264.41901          2206.93055           820.54858           961.00218           826.07663           961.07924          1631.32193           961.22704           954.62279           964.73167          1124.83181           919.44099           934.30284           963.18027          1063.48468           919.89717           960.92701           960.82979           963.47950           968.87722           958.98264           960.98537           963.99457           954.68782          1057.64755          2696.33324           973.06502           959.14629           953.83108           965.76639           958.23884           566.99077           930.32292           958.25583          1297.13298           958.93220          3956.19097           881.14549           962.14226           959.78095           962.31449           564.66612           763.78497           962.32705           879.21261           963.81999          1090.35009           823.78855           873.57069          1023.28897           955.70089           960.80077           762.41792           868.04677          1257.46103           962.39835           962.62638           966.89438           831.25788           961.22844           907.17592          1066.82032          1932.70253           672.36033           832.77514           966.55758           907.03992           964.03499           909.21214           906.70923           958.16765           963.49082           960.32023           987.87024           963.31905           960.51810           961.16293          1106.35320           634.74359           960.61879           962.83255           966.44987           909.36466           959.22525           910.26189           963.91442           965.29849           540.88823           965.41594           962.53237           618.70149           966.96484           530.32509           961.91439           857.19509           920.62273           937.912