# vtk DataFile Version 3.0
Output from R2
ASCII
DATASET UNSTRUCTURED_GRID
POINTS       5984 double
    -7.69000  2968.10000   0.
     0.00000  2968.10000   0.
     1.54000  2966.60000   0.
     3.08000  2964.90000   0.
     4.61000  2964.10000   0.
     6.15000  2963.30000   0.
     7.69000  2962.60000   0.
     9.23000  2961.50000   0.
    10.76000  2960.70000   0.
    12.30000  2960.00000   0.
    13.84000  2959.30000   0.
    15.38000  2958.70000   0.
    16.91000  2958.10000   0.
    18.45000  2957.30000   0.
    19.99000  2956.60000   0.
    21.52000  2955.80000   0.
    23.06000  2955.00000   0.
    24.60000  2954.30000   0.
    26.14000  2953.50000   0.
    27.68000  2952.80000   0.
    29.21000  2951.90000   0.
    30.75000  2951.10000   0.
    32.29000  2950.20000   0.
    33.83000  2949.50000   0.
    35.36000  2948.70000   0.
    36.90000  2948.10000   0.
    38.44000  2947.30000   0.
    39.98000  2946.70000   0.
    41.51000  2946.10000   0.
    43.05000  2945.50000   0.
    44.59000  2945.10000   0.
    46.13000  2944.50000   0.
    47.66000  2944.10000   0.
    49.20000  2943.60000   0.
    50.74000  2943.40000   0.
    52.28000  2943.00000   0.
    53.81000  2942.50000   0.
    55.35000  2942.10000   0.
    56.89000  2941.60000   0.
    58.43000  2941.00000   0.
    59.96000  2940.60000   0.
    61.50000  2940.10000   0.
    63.04000  2939.50000   0.
    64.58000  2939.10000   0.
    66.11000  2939.20000   0.
    67.65000  2939.20000   0.
    69.19000  2939.10000   0.
    70.73000  2938.90000   0.
    72.26000  2938.60000   0.
    73.80000  2938.30000   0.
    75.34000  2938.50000   0.
    76.88000  2938.70000   0.
    78.41000  2938.60000   0.
    79.95000  2938.80000   0.
    81.49000  2938.90000   0.
    83.03000  2939.10000   0.
    84.56000  2939.10000   0.
    92.25000  2939.10000   0.
    -7.69000  2960.92000   0.
    -2.14000  2960.92000   0.
     3.42000  2957.55000   0.
     8.97000  2954.51000   0.
    14.52000  2951.86000   0.
    20.07000  2949.38000   0.
    25.63000  2946.59000   0.
    31.18000  2943.67000   0.
    36.73000  2940.99000   0.
    42.28000  2938.62000   0.
    47.83000  2936.87000   0.
    53.39000  2935.46000   0.
    58.94000  2933.69000   0.
    64.49000  2931.95000   0.
    70.04000  2931.81000   0.
    75.60000  2931.36000   0.
    81.15000  2931.70000   0.
    86.70000  2931.92000   0.
    92.25000  2931.92000   0.
  -430.51000  2968.10000   0.
  -430.51000  -260.87000   0.
   515.07000  2939.10000   0.
   515.07000  -260.87000   0.
    -6.92100  2968.10000   0.
    -6.15200  2968.10000   0.
    -5.38300  2968.10000   0.
    -4.61400  2968.10000   0.
    -3.84500  2968.10000   0.
    -3.07600  2968.10000   0.
    -2.30700  2968.10000   0.
    -1.53800  2968.10000   0.
    -0.76900  2968.10000   0.
     0.51333  2967.60000   0.
     1.02667  2967.10000   0.
     2.05333  2966.03333   0.
     2.56667  2965.46667   0.
     3.59000  2964.63333   0.
     4.10000  2964.36667   0.
     5.12333  2963.83333   0.
     5.63667  2963.56667   0.
     6.66333  2963.06667   0.
     7.17667  2962.83333   0.
     8.20333  2962.23333   0.
     8.71667  2961.86667   0.
     9.74000  2961.23333   0.
    10.25000  2960.96667   0.
    11.27333  2960.46667   0.
    11.78667  2960.23333   0.
    12.81333  2959.76667   0.
    13.32667  2959.53333   0.
    14.35333  2959.10000   0.
    14.86667  2958.90000   0.
    15.89000  2958.50000   0.
    16.40000  2958.30000   0.
    17.42333  2957.83333   0.
    17.93667  2957.56667   0.
    18.96333  2957.06667   0.
    19.47667  2956.83333   0.
    20.50000  2956.33333   0.
    21.01000  2956.06667   0.
    22.03333  2955.53333   0.
    22.54667  2955.26667   0.
    23.57333  2954.76667   0.
    24.08667  2954.53333   0.
    25.11333  2954.03333   0.
    25.62667  2953.76667   0.
    26.65333  2953.26667   0.
    27.16667  2953.03333   0.
    28.19000  2952.50000   0.
    28.70000  2952.20000   0.
    29.72333  2951.63333   0.
    30.23667  2951.36667   0.
    31.26333  2950.80000   0.
    31.77667  2950.50000   0.
    32.80333  2949.96667   0.
    33.31667  2949.73333   0.
    34.34000  2949.23333   0.
    34.85000  2948.96667   0.
    35.87333  2948.50000   0.
    36.38667  2948.30000   0.
    37.41333  2947.83333   0.
    37.92667  2947.56667   0.
    38.95333  2947.10000   0.
    39.46667  2946.90000   0.
    40.49000  2946.50000   0.
    41.00000  2946.30000   0.
    42.02333  2945.90000   0.
    42.53667  2945.70000   0.
    43.56333  2945.36667   0.
    44.07667  2945.23333   0.
    45.10333  2944.90000   0.
    45.61667  2944.70000   0.
    46.64000  2944.36667   0.
    47.15000  2944.23333   0.
    48.17333  2943.93333   0.
    48.68667  2943.76667   0.
    49.71333  2943.53333   0.
    50.22667  2943.46667   0.
    51.25333  2943.26667   0.
    51.76667  2943.13333   0.
    52.79000  2942.83333   0.
    53.30000  2942.66667   0.
    54.32333  2942.36667   0.
    54.83667  2942.23333   0.
    55.86333  2941.93333   0.
    56.37667  2941.76667   0.
    57.40333  2941.40000   0.
    57.91667  2941.20000   0.
    58.94000  2940.86667   0.
    59.45000  2940.73333   0.
    60.47333  2940.43333   0.
    60.98667  2940.26667   0.
    62.01333  2939.90000   0.
    62.52667  2939.70000   0.
    63.55333  2939.36667   0.
    64.06667  2939.23333   0.
    65.34500  2939.15000   0.
    66.88000  2939.20000   0.
    68.42000  2939.15000   0.
    69.70333  2939.03333   0.
    70.21667  2938.96667   0.
    71.24000  2938.80000   0.
    71.75000  2938.70000   0.
    72.77333  2938.50000   0.
    73.28667  2938.40000   0.
    74.31333  2938.36667   0.
    74.82667  2938.43333   0.
    75.85333  2938.56667   0.
    76.36667  2938.63333   0.
    77.64500  2938.65000   0.
    78.92333  2938.66667   0.
    79.43667  2938.73333   0.
    80.72000  2938.85000   0.
    82.00333  2938.96667   0.
    82.51667  2939.03333   0.
    83.79500  2939.10000   0.
    85.32900  2939.10000   0.
    86.09800  2939.10000   0.
    86.86700  2939.10000   0.
    87.63600  2939.10000   0.
    88.40500  2939.10000   0.
    89.17400  2939.10000   0.
    89.94300  2939.10000   0.
    90.71200  2939.10000   0.
    91.48100  2939.10000   0.
    -6.30250  2960.92000   0.
    -4.91500  2960.92000   0.
    -3.52750  2960.92000   0.
    -1.02800  2960.24600   0.
     0.08400  2959.57200   0.
     1.19600  2958.89800   0.
     2.30800  2958.22400   0.
     4.53000  2956.94200   0.
     5.64000  2956.33400   0.
     6.75000  2955.72600   0.
     7.86000  2955.11800   0.
    10.35750  2953.84750   0.
    11.74500  2953.18500   0.
    13.13250  2952.52250   0.
    15.90750  2951.24000   0.
    17.29500  2950.62000   0.
    18.68250  2950.00000   0.
    21.18200  2948.82200   0.
    22.29400  2948.26400   0.
    23.40600  2947.70600   0.
    24.51800  2947.14800   0.
    26.74000  2946.00600   0.
    27.85000  2945.42200   0.
    28.96000  2944.83800   0.
    30.07000  2944.25400   0.
    32.56750  2943.00000   0.
    33.95500  2942.33000   0.
    35.34250  2941.66000   0.
    38.11750  2940.39750   0.
    39.50500  2939.80500   0.
    40.89250  2939.21250   0.
    43.66750  2938.18250   0.
    45.05500  2937.74500   0.
    46.44250  2937.30750   0.
    49.22000  2936.51750   0.
    50.61000  2936.16500   0.
    52.00000  2935.81250   0.
    54.77750  2935.01750   0.
    56.16500  2934.57500   0.
    57.55250  2934.13250   0.
    60.32750  2933.25500   0.
    61.71500  2932.82000   0.
    63.10250  2932.38500   0.
    65.87750  2931.91500   0.
    67.26500  2931.88000   0.
    68.65250  2931.84500   0.
    71.43000  2931.69750   0.
    72.82000  2931.58500   0.
    74.21000  2931.47250   0.
    76.98750  2931.44500   0.
    78.37500  2931.53000   0.
    79.76250  2931.61500   0.
    82.53750  2931.75500   0.
    83.92500  2931.81000   0.
    85.31250  2931.86500   0.
    88.08750  2931.92000   0.
    89.47500  2931.92000   0.
    90.86250  2931.92000   0.
    -7.69000  2967.35264   0.
    -7.69000  2966.52748   0.
    -7.69000  2965.61644   0.
    -7.69000  2964.61056   0.
    -7.69000  2963.49998   0.
    -7.69000  2962.27381   0.
    92.25000  2938.35264   0.
    92.25000  2937.52748   0.
    92.25000  2936.61644   0.
    92.25000  2935.61056   0.
    92.25000  2934.49998   0.
    92.25000  2933.27381   0.
    -8.49328  2968.10000   0.
    -9.37122  2968.10000   0.
   -10.33076  2968.10000   0.
   -11.37949  2968.10000   0.
   -12.52568  2968.10000   0.
   -13.77840  2968.10000   0.
   -15.14756  2968.10000   0.
   -16.64397  2968.10000   0.
   -18.27946  2968.10000   0.
   -20.06696  2968.10000   0.
   -22.02060  2968.10000   0.
   -24.15581  2968.10000   0.
   -26.48948  2968.10000   0.
   -29.04004  2968.10000   0.
   -31.82766  2968.10000   0.
   -34.87437  2968.10000   0.
   -38.20425  2968.10000   0.
   -41.84362  2968.10000   0.
   -45.82125  2968.10000   0.
   -50.16857  2968.10000   0.
   -54.91994  2968.10000   0.
   -60.11292  2968.10000   0.
   -65.78855  2968.10000   0.
   -71.99170  2968.10000   0.
   -78.77138  2968.10000   0.
   -86.18119  2968.10000   0.
   -94.27968  2968.10000   0.
  -103.13088  2968.10000   0.
  -112.80473  2968.10000   0.
  -123.37771  2968.10000   0.
  -134.93337  2968.10000   0.
  -147.56304  2968.10000   0.
  -161.36656  2968.10000   0.
  -176.45302  2968.10000   0.
  -192.94166  2968.10000   0.
  -210.96281  2968.10000   0.
  -230.65890  2968.10000   0.
  -252.18562  2968.10000   0.
  -275.71308  2968.10000   0.
  -301.42726  2968.10000   0.
  -329.53140  2968.10000   0.
  -360.24763  2968.10000   0.
  -393.81871  2968.10000   0.
  -430.51000  2929.65988   0.
  -430.51000  2891.21976   0.
  -430.51000  2852.77964   0.
[...]
POINT_DATA      5984
CELL_DATA     11506
SCALARS Resistivity(ohm.m) double 1
LOOKUP_TABLE default
          1232.23916          1232.23576          1203.53874          1231.95270          3610.89038          1231.95793          1232.31431          1232.31342          1927.66636          1348.83173          1228.90386          1232.43759          1197.39513          1232.47926          1349.64940          1232.49571          1232.10250          1229.06088          1232.05001          1232.10086          1232.11943          1232.47975          1232.44404          1133.19635          1232.20338          1232.19892          1073.00029          1232.75949          1232.22660          1232.72861          1232.04125          1234.36937          1232.25686          1232.10555          2858.23712          1017.96347          1231.82690          1783.94244          1232.26894          1231.71666          1232.30504          1232.29321          1232.29593          1232.80507          1176.67834          1231.70747          1232.39936          1234.38319          1231.80852          1232.48118          1231.91669          1232.41026          1232.30056          1232.26252          1232.21891          1842.13737          2257.34409          1229.01048          1232.22564          1211.75144          1232.28876          1232.26496          1232.25788          1232.22055          1232.26567          1230.40843          1232.22502          3451.53554          2837.40499          1232.23399          1232.27946          1234.54337          1232.24375          1071.06889          1232.29652          1232.23882          1232.27923          1232.33044          3892.44610          1232.37541          1232.22759          1232.25483          1784.40986          1190.89270          1234.49447          1234.99022          1344.78880          1232.04233          1231.73247          1232.37317          1244.02070          1232.29112          1232.22310          1853.22516          1200.16335          1232.44563          1224.38315          1232.38030          1232.27272          1235.14878          1232.44441          1232.28189          1261.29416          1229.77779          1231.91100          1232.38059          1337.99462          1232.34210          1232.22663          1232.25633          1234.74477          1231.80777          1232.39072           492.58856          1232.21329          1232.30485          1230.68823          1232.26364          2192.89256          1021.43330          1210.79064          1232.38286          1312.69975          1232.38751          1232.49212          1311.00499          1309.59380          1232.48489          1344.74175          1235.21243          1219.84091          1232.27038          1312.37185          1231.76000          1351.57059          1231.80282          1233.60189          1011.59098          1234.68513          1230.45017          1232.30054          1232.18856          1232.30507          1230.64229          1232.23984          1214.99750          1232.26478          1231.98621          1250.85471          2137.05280          1232.29438          1231.99385          1219.36227          3934.85061           885.32099          1232.05449          1232.28655          1254.86555          1213.21628          1232.24921          1232.22033          1218.53710          1232.22377           606.50187          1232.31940          1232.32191          1233.46521           863.93377          1549.35244          1232.67540          1699.63625           965.47223          1232.19252          1232.29365          1232.31284          1232.22298          1252.80559          1763.26990          1268.55854          1232.21197          1236.27336          1450.62392          1078.95513          1232.14497           570.68710          1232.28889           456.71406          1232.36078          1306.98231          1232.30361          1221.18587          4928.44406          1232.33339          1528.63560           657.58818          1230.76781          1231.72362          1232.22580          1176.62634          2086.38328          1233.81373          1880.15180          1225.80764          2879.63893           732.59015          1230.22031          1230.87563          1231.99839           761.33264          1232.24610          1305.69833          1248.63701          1342.19946          1264.65738          1232.41878          1284.10550           796.22601          1235.64677          1234.45335          1307.91926          1232.27614          1232.29631          2062.77716          1232.27283          1232.22014          4542.12140          1231.05825          1011.31374          1254.55459           591.37628          1126.00064          1726.59864          1255.81683          1244.70158          1232.36502          1232.41089          1011.97253          1231.36268          1232.35440          1293.96312          1232.13023          1232.21923           991.25071          1232.22784          4048.23187          1232.22257          1372.81393          1231.45409          1230.61347          1232.41302          1234.48087          1231.37644          1232.37658          1232.04028          1236.82158          1265.08776          1233.12358          1232.29367          1231.43214          1232.12004          1232.01973          1350.14701          1232.09521          1232.23404          1332.72005          1399.02440          1217.75620          1225.64426          1232.44641          1232.21269          1248.75218          1232.22648          2244.30025           925.44677          1231.46911          1230.96877          1367.86790          1232.30574          1231.42169          1232.43865          1236.92294          1232.40716          1231.85888          1232.51698          3040.17842          1232.29070          1264.53090          1232.54707          1232.15261          1232.50168          1232.39314          1232.28240          1228.51269          2213.32955          1018.19943           604.19462          1236.12137          1231.87051          1232.30532          1234.06010          1231.88505          1232.30447          1232.27334          1228.20839          1232.30979          1232.22360          1232.28746          1232.25865          1232.28902          1232.51404          1232.29624          1232.23535          1232.64870          1213.79280          1218.50581          1232.20284          1232.64349          1232.54987          1211.62702          1232.36252          1225.55367          1932.47390          1232.34608          1232.02799          1232.25346          1232.23176          1232.27329          1324.43250          1232.30525          1253.42197          1232.13856          1232.54333          1212.80559          1625.82600          1256.03605          1233.65390           973.18742          1304.65053          1232.26570          1349.24828          1232.33898          1271.33176          1233.33932          1232.34095          1232.32608          1232.14187           487.18272          1309.97512          1257.54130          1289.33135          1232.26644          1232.30294          4635.62781          1232.29110          1232.20443          1232.26431          1226.31402          1231.45664          1231.87008          1231.72261          1230.65117          1188.17778          1229.63054           401.10637          1240.13141          1228.89644          1232.33577          1232.22671          1288.44997          1232.33016          1192.71364          1232.58327          1251.98995          1232.28764          1232.39259          1232.29237          1232.34438          1231.64412          1232.22688          1232.30578          1232.34840          1231.67547          1232.31405          1232.23840          1360.50533          1232.18382          1237.30429          1362.72154          1674.63474          1261.52269          1159.71355           985.41514          1232.26361          1232.25398          1233.24243          1232.49589          1099.00582          1256.95016          1232.34911          2313.12227          1232.34984          1232.34618          1013.20856          1232.22934          1229.97874          1232.01953          1231.54482          1257.93723          1183.03001          1232.14713          1421.64195          1232.18596          1232.27896          1232.27263          1262.57597          3857.72880          1234.71138          1221.00040          1232.36340          1232.16989          1232.36325          1232.29411          1231.54835          3021.15773          1230.00018          1232.35235          1232.27984          1232.31292          1958.02184          1232.28840          1232.58428          1229.92842          1231.74077          1232.22967          1232.15493          1232.27825          1232.29070          1231.65258          1231.78341          1187.10440          1232.43358          1232.20787          1232.25039          1259.36129          1204.45070          1231.79178          1160.31313          1232.25368          1790.81426          1232.24126          1296.13928          1224.66073          1226.89891           599.46191          1232.41814          1245.37927          4442.26566          1233.48330          1231.77955          1232.27029          1125.11621          1228.57511          1232.21460          1232.40630          1232.21808          1266.37172          1270.35162          1231.44886          1123.58850          1219.24554          1573.64236          1233.65824          1042.22769          1308.11711          1234.87327          1236.45846          1231.32259          1308.86419          1231.77481          1232.27210          1876.08084          1248.58699          1208.55823           851.89824          1231.74652          1231.32370          1232.50924          1232.40996          1232.37118           518.04368          1232.31389          1232.24911          1232.45770          1232.29801          1304.16600          1232.26649          1232.45759          1182.87847          1016.26754          1231.83778          1232.36533          1742.55112          1231.80775          1232.21711          1232.44894          1167.08781          1232.22106          1230.63833          1232.36586          1232.27095          1232.60919          1327.88028          1225.00488          1228.93429           544.27750          1268.27036           841.22476          1220.50992          1231.49736          1231.76060          1225.22333          1233.71123          1232.02522          1232.22135          1232.29920          1127.84508          1221.72194          1240.60725           303.40717          1232.45144          1292.14002          1229.04614          1233.08991          1231.45656          1232.34435          1233.93345          2164.82942          1232.34893          1232.28259          1232.23086          1232.16635          1066.15220          1232.20440          1232.29681          1232.25687          1131.40378          1232.34790          1233.65263          1061.27318          1233.21110          1232.35873          1228.99707          1232.29517          1232.25521          1232.29961          1225.89407          1282.61260          1371.07131          1231.54744          1232.33349           905.14826          1006.09711          1232.25091          1232.28538          1231.29413          1232.42003          1230.72575          1232.32890          1287.57590          1232.24398          1247.21779          1232.23560          1232.37075          2168.66762          1232.31592          1232.23709          1234.29416          1420.66372          1232.19581          1232.23017          1234.43092          1232.23155          1232.53536          1285.88144          1231.54056          1232.70394          1232.28586          1232.43821           680.63348          1232.35843          1230.77183          1162.46063          1224.64857          1232.24161          1645.59213          1232.16358           955.18487          1222.42112          1232.21141          1208.26781          1232.27431           751.61128          1232.27252          1231.08496          2242.31667          1298.21594          1232.26995          1237.70481          1234.38272          1288.20551          1228.23690          1016.16901          1229.47262          1232.54073          1205.13166          1243.17884           421.16295          1227.09740          1232.29427           799.88719          1232.27453           531.90764          1232.34680          1179.73482          1231.80347          1232.35942          1232.25006          1232.34044          1232.24115          1232.21880          1243.02900          1254.96862          1068.79234          1232.09895          1232.35930          1231.97311          1563.25966          1231.69899          1231.86765          1232.31909          1232.32120          1232.30309           652.12442          1235.06997          1232.26728          1232.43697          1232.46126          1223.55247          1232.23764          1232.33199          1232.25408          1231.24032          1232.38426          1232.32978          1234.21328          1175.69948          1232.34076           927.37573          1232.42775          1233.71227          1232.24788          1232.25779          1232.27929          1232.33522          1232.27324          1232.02933          1232.41809          1154.86984          1232.31263          1229.58433          1232.26662          1232.32096          1233.55178          1232.28702          1225.37578          1232.24946          1708.07913          1232.22048          1607.62033          1271.93705          1232.22334          1211.85333          1232.56817          1241.80185          1232.22265          1232.11095          1231.90888          1232.25227           433.75392          1232.19319          1237.43831          1235.69570          1318.54858          1233.39457          1230.31335          1233.17739          1232.33654          1232.34655          1230.41134          1343.04082          1864.12947          1232.29040           381.37663          1228.02319          1259.75253          1693.28630          1232.21686          1364.73909           780.58672          1232.22339          1232.26723          1232.21931          1232.41172          1231.80690          1232.06298          2756.86948          1203.96839          1232.29991          1232.28802           979.59446           943.40104          1232.53440          1331.43092          1232.27045           891.12033          1237.14556          1231.86162          1230.60318          1232.30228          1232.29347          1231.44388          1240.73407          1232.37160          1231.97459          1232.23804          1254.98397          2046.38944          1572.22833          1232.23394          1237.24542          1232.03135          1232.27140          1232.32187          1231.40166          1230.67032          1231.95891          1232.35460          1736.71973          1232.27241          1231.99101          1232.30004          1232.25983          1232.11170          1344.23760          1231.57183          1217.32365           729.49507          1846.72025          1232.48317          1231.85650          1232.26220          1231.61026          1232.31075           709.24076          1264.39422          1230.70887          1232.34388          1232.46787          1232.39667          1232.23199          1254.29984          1232.21766          1267.10211          1233.23472          1232.27117          1232.30417          1232.30459          1219.03311          1232.15483          1230.54387          1232.31248          1232.15314          2467.72363          1229.98967          1229.52522          1103.68106           896.74667          1569.16140          1232.30853          1165.77302          1953.37423          1231.11043          1230.81127          1232.15868          1343.41483          1232.37499          1232.13610          1232.25423          1231.92118          1071.46607           388.04137          1232.01153          1231.98412          1233.24908          1516.12876          1232.26566          2258.77423          1238.00247          1232.30509          1232.27244           320.34814          1232.26061           953.00735          1238.54563          1314.82917          1231.86776          1091.71392          1225.10114          1263.38258          1230.89310          1509.38705          1232.30766           456.68472          1232.06143          1270.16126          2923.89220          1209.06340          1232.04456           943.79026          1230.80896          1238.66055          1233.32213          1339.48505           837.13837          1231.89204          1232.28976          1239.00174           619.22123          1231.91548          1232.26318           994.17309           984.20206          1253.11688          1232.37133           533.00662          1219.19652          1189.57535          1224.48413          1231.63707          1231.93032          1231.78946          2523.30713          1232.33779          1231.63585          1231.63091          1232.30633          1232.22750          1229.32167          1232.38365          1232.29950          1229.42691          1232.31174          2394.18467          1231.57103          1232.28660          1232.24941          1232.01346          1232.20667          1128.12151          1232.30654          1232.26243          1232.30854          1232.32022          1232.30682          1232.27012          1230.89342          1161.04256          1868.58020          1215.10635          1224.93440          1232.31846          1283.11669          1211.21603          1232.29659          1232.28803          1231.52163          1232.23174          1232.34258          1232.23714          1039.30920          1232.24643          1229.53918          1233.03731          1236.78756          1206.09422          1232.23809          1232.27626          1212.45062          1374.07095          1951.61401          1199.01071          1232.20338          1246.53845          1232.19741          1627.28711          1232.35027          1231.33940          1232.23274          1291.30930          1223.94721          1220.65758          1232.31868          1250.82567          1130.00084          1232.33226          1232.43319          1232.31076          1233.80060          1231.73791          1232.36610          1160.45171          1231.36036          1159.63376          2592.85262          1234.30202          1231.76239          1230.62418          1232.32145          1231.80093           686.08574          1224.29276          1231.73905          1355.71111          1231.85354          4063.78526          1214.78007          1232.32466          1232.30303          1232.31328           679.10708           971.35508          1232.27420          1096.46248          1232.30189          1274.02911          1112.85233          1209.91496          1245.97086          1231.45083          1232.31717          1184.32854          1246.83761          1370.63201          1232.30760          1232.55303          1233.42057          1340.70532          1231.96548          1230.60474          1264.46415          2208.90706           833.35463          1311.47366          1232.29324          1230.10917          1232.29308          1229.50241          1233.14955          1231.74763          1232.20450          1232.39024          1237.71396          1232.20671          1232.33873          1232.36467          1281.99572           971.59058          1232.06037          1232.26081          1232.28394          1231.85242          1232.41186          1228.59933          1232.70069          1232.28624           629.24124          1232.30546          1232.39478           923.10579          1233.14239           645.66848          1232.34695          1334.29799          1230.48899          1220.634