# vtk DataFile Version 3.0
Output from R2
ASCII
DATASET UNSTRUCTURED_GRID
POINTS       5984 double
    -7.69000  2968.10000   0.
     0.00000  2968.10000   0.
     1.54000  2966.60000   0.
     3.08000  2964.90000   0.
     4.61000  2964.10000   0.
     6.15000  2963.30000   0.
     7.69000  2962.60000   0.
     9.23000  2961.50000   0.
    10.76000  2960.70000   0.
    12.30000  2960.00000   0.
    13.84000  2959.30000   0.
    15.38000  2958.70000   0.
    16.91000  2958.10000   0.
    18.45000  2957.30000   0.
    19.99000  2956.60000   0.
    21.52000  2955.80000   0.
    23.06000  2955.00000   0.
    24.60000  2954.30000   0.
    26.14000  2953.50000   0.
    27.68000  2952.80000   0.
    29.21000  2951.90000   0.
    30.75000  2951.10000   0.
    32.29000  2950.20000   0.
    33.83000  2949.50000   0.
    35.36000  2948.70000   0.
    36.90000  2948.10000   0.
    38.44000  2947.30000   0.
    39.98000  2946.70000   0.
    41.51000  2946.10000   0.
    43.05000  2945.50000   0.
    44.59000  2945.10000   0.
    46.13000  2944.50000   0.
    47.66000  2944.10000   0.
    49.20000  2943.60000   0.
    50.74000  2943.40000   0.
    52.28000  2943.00000   0.
    53.81000  2942.50000   0.
    55.35000  2942.10000   0.
    56.89000  2941.60000   0.
    58.43000  2941.00000   0.
    59.96000  2940.60000   0.
    61.50000  2940.10000   0.
    63.04000  2939.50000   0.
    64.58000  2939.10000   0.
    66.11000  2939.20000   0.
    67.65000  2939.20000   0.
    69.19000  2939.10000   0.
    70.73000  2938.90000   0.
    72.26000  2938.60000   0.
    73.80000  2938.30000   0.
    75.34000  2938.50000   0.
    76.88000  2938.70000   0.
    78.41000  2938.60000   0.
    79.95000  2938.80000   0.
    81.49000  2938.90000   0.
    83.03000  2939.10000   0.
    84.56000  2939.10000   0.
    92.25000  2939.10000   0.
    -7.69000  2960.92000   0.
    -2.14000  2960.92000   0.
     3.42000  2957.55000   0.
     8.97000  2954.51000   0.
    14.52000  2951.86000   0.
    20.07000  2949.38000   0.
    25.63000  2946.59000   0.
    31.18000  2943.67000   0.
    36.73000  2940.99000   0.
    42.28000  2938.62000   0.
    47.83000  2936.87000   0.
    53.39000  2935.46000   0.
    58.94000  2933.69000   0.
    64.49000  2931.95000   0.
    70.04000  2931.81000   0.
    75.60000  2931.36000   0.
    81.15000  2931.70000   0.
    86.70000  2931.92000   0.
    92.25000  2931.92000   0.
  -430.51000  2968.10000   0.
  -430.51000  -260.87000   0.
   515.07000  2939.10000   0.
   515.07000  -260.87000   0.
    -6.92100  2968.10000   0.
    -6.15200  2968.10000   0.
    -5.38300  2968.10000   0.
    -4.61400  2968.10000   0.
    -3.84500  2968.10000   0.
    -3.07600  2968.10000   0.
    -2.30700  2968.10000   0.
    -1.53800  2968.10000   0.
    -0.76900  2968.10000   0.
     0.51333  2967.60000   0.
     1.02667  2967.10000   0.
     2.05333  2966.03333   0.
     2.56667  2965.46667   0.
     3.59000  2964.63333   0.
     4.10000  2964.36667   0.
     5.12333  2963.83333   0.
     5.63667  2963.56667   0.
     6.66333  2963.06667   0.
     7.17667  2962.83333   0.
     8.20333  2962.23333   0.
     8.71667  2961.86667   0.
     9.74000  2961.23333   0.
    10.25000  2960.96667   0.
    11.27333  2960.46667   0.
    11.78667  2960.23333   0.
    12.81333  2959.76667   0.
    13.32667  2959.53333   0.
    14.35333  2959.10000   0.
    14.86667  2958.90000   0.
    15.89000  2958.50000   0.
    16.40000  2958.30000   0.
    17.42333  2957.83333   0.
    17.93667  2957.56667   0.
    18.96333  2957.06667   0.
    19.47667  2956.83333   0.
    20.50000  2956.33333   0.
    21.01000  2956.06667   0.
    22.03333  2955.53333   0.
    22.54667  2955.26667   0.
    23.57333  2954.76667   0.
    24.08667  2954.53333   0.
    25.11333  2954.03333   0.
    25.62667  2953.76667   0.
    26.65333  2953.26667   0.
    27.16667  2953.03333   0.
    28.19000  2952.50000   0.
    28.70000  2952.20000   0.
    29.72333  2951.63333   0.
    30.23667  2951.36667   0.
    31.26333  2950.80000   0.
    31.77667  2950.50000   0.
    32.80333  2949.96667   0.
    33.31667  2949.73333   0.
    34.34000  2949.23333   0.
    34.85000  2948.96667   0.
    35.87333  2948.50000   0.
    36.38667  2948.30000   0.
    37.41333  2947.83333   0.
    37.92667  2947.56667   0.
    38.95333  2947.10000   0.
    39.46667  2946.90000   0.
    40.49000  2946.50000   0.
    41.00000  2946.30000   0.
    42.02333  2945.90000   0.
    42.53667  2945.70000   0.
    43.56333  2945.36667   0.
    44.07667  2945.23333   0.
    45.10333  2944.90000   0.
    45.61667  2944.70000   0.
    46.64000  2944.36667   0.
    47.15000  2944.23333   0.
    48.17333  2943.93333   0.
    48.68667  2943.76667   0.
    49.71333  2943.53333   0.
    50.22667  2943.46667   0.
    51.25333  2943.26667   0.
    51.76667  2943.13333   0.
    52.79000  2942.83333   0.
    53.30000  2942.66667   0.
    54.32333  2942.36667   0.
    54.83667  2942.23333   0.
    55.86333  2941.93333   0.
    56.37667  2941.76667   0.
    57.40333  2941.40000   0.
    57.91667  2941.20000   0.
    58.94000  2940.86667   0.
    59.45000  2940.73333   0.
    60.47333  2940.43333   0.
    60.98667  2940.26667   0.
    62.01333  2939.90000   0.
    62.52667  2939.70000   0.
    63.55333  2939.36667   0.
    64.06667  2939.23333   0.
    65.34500  2939.15000   0.
    66.88000  2939.20000   0.
    68.42000  2939.15000   0.
    69.70333  2939.03333   0.
    70.21667  2938.96667   0.
    71.24000  2938.80000   0.
    71.75000  2938.70000   0.
    72.77333  2938.50000   0.
    73.28667  2938.40000   0.
    74.31333  2938.36667   0.
    74.82667  2938.43333   0.
    75.85333  2938.56667   0.
    76.36667  2938.63333   0.
    77.64500  2938.65000   0.
    78.92333  2938.66667   0.
    79.43667  2938.73333   0.
    80.72000  2938.85000   0.
    82.00333  2938.96667   0.
    82.51667  2939.03333   0.
    83.79500  2939.10000   0.
    85.32900  2939.10000   0.
    86.09800  2939.10000   0.
    86.86700  2939.10000   0.
    87.63600  2939.10000   0.
    88.40500  2939.10000   0.
    89.17400  2939.10000   0.
    89.94300  2939.10000   0.
    90.71200  2939.10000   0.
    91.48100  2939.10000   0.
    -6.30250  2960.92000   0.
    -4.91500  2960.92000   0.
    -3.52750  2960.92000   0.
    -1.02800  2960.24600   0.
     0.08400  2959.57200   0.
     1.19600  2958.89800   0.
     2.30800  2958.22400   0.
     4.53000  2956.94200   0.
     5.64000  2956.33400   0.
     6.75000  2955.72600   0.
     7.86000  2955.11800   0.
    10.35750  2953.84750   0.
    11.74500  2953.18500   0.
    13.13250  2952.52250   0.
    15.90750  2951.24000   0.
    17.29500  2950.62000   0.
    18.68250  2950.00000   0.
    21.18200  2948.82200   0.
    22.29400  2948.26400   0.
    23.40600  2947.70600   0.
    24.51800  2947.14800   0.
    26.74000  2946.00600   0.
    27.85000  2945.42200   0.
    28.96000  2944.83800   0.
    30.07000  2944.25400   0.
    32.56750  2943.00000   0.
    33.95500  2942.33000   0.
    35.34250  2941.66000   0.
    38.11750  2940.39750   0.
    39.50500  2939.80500   0.
    40.89250  2939.21250   0.
    43.66750  2938.18250   0.
    45.05500  2937.74500   0.
    46.44250  2937.30750   0.
    49.22000  2936.51750   0.
    50.61000  2936.16500   0.
    52.00000  2935.81250   0.
    54.77750  2935.01750   0.
    56.16500  2934.57500   0.
    57.55250  2934.13250   0.
    60.32750  2933.25500   0.
    61.71500  2932.82000   0.
    63.10250  2932.38500   0.
    65.87750  2931.91500   0.
    67.26500  2931.88000   0.
    68.65250  2931.84500   0.
    71.43000  2931.69750   0.
    72.82000  2931.58500   0.
    74.21000  2931.47250   0.
    76.98750  2931.44500   0.
    78.37500  2931.53000   0.
    79.76250  2931.61500   0.
    82.53750  2931.75500   0.
    83.92500  2931.81000   0.
    85.31250  2931.86500   0.
    88.08750  2931.92000   0.
    89.47500  2931.92000   0.
    90.86250  2931.92000   0.
    -7.69000  2967.35264   0.
    -7.69000  2966.52748   0.
    -7.69000  2965.61644   0.
    -7.69000  2964.61056   0.
    -7.69000  2963.49998   0.
    -7.69000  2962.27381   0.
    92.25000  2938.35264   0.
    92.25000  2937.52748   0.
    92.25000  2936.61644   0.
    92.25000  2935.61056   0.
    92.25000  2934.49998   0.
    92.25000  2933.27381   0.
    -8.49328  2968.10000   0.
    -9.37122  2968.10000   0.
   -10.33076  2968.10000   0.
   -11.37949  2968.10000   0.
   -12.52568  2968.10000   0.
   -13.77840  2968.10000   0.
   -15.14756  2968.10000   0.
   -16.64397  2968.10000   0.
   -18.27946  2968.10000   0.
   -20.06696  2968.10000   0.
   -22.02060  2968.10000   0.
   -24.15581  2968.10000   0.
   -26.48948  2968.10000   0.
   -29.04004  2968.10000   0.
   -31.82766  2968.10000   0.
   -34.87437  2968.10000   0.
   -38.20425  2968.10000   0.
   -41.84362  2968.10000   0.
   -45.82125  2968.10000   0.
   -50.16857  2968.10000   0.
   -54.91994  2968.10000   0.
   -60.11292  2968.10000   0.
   -65.78855  2968.10000   0.
   -71.99170  2968.10000   0.
   -78.77138  2968.10000   0.
   -86.18119  2968.10000   0.
   -94.27968  2968.10000   0.
  -103.13088  2968.10000   0.
  -112.80473  2968.10000   0.
  -123.37771  2968.10000   0.
  -134.93337  2968.10000   0.
  -147.56304  2968.10000   0.
  -161.36656  2968.10000   0.
  -176.45302  2968.10000   0.
  -192.94166  2968.10000   0.
  -210.96281  2968.10000   0.
  -230.65890  2968.10000   0.
  -252.18562  2968.10000   0.
  -275.71308  2968.10000   0.
  -301.42726  2968.10000   0.
  -329.53140  2968.10000   0.
  -360.24763  2968.10000   0.
  -393.81871  2968.10000   0.
  -430.51000  2929.65988   0.
  -430.51000  2891.21976   0.
  -430.51000  2852.77964   0.
[...]
POINT_DATA      5984
CELL_DATA     11506
SCALARS Resistivity(ohm.m) double 1
LOOKUP_TABLE default
          1242.58683          1242.59599          1213.29696          1242.72568          3587.75859          1242.74205          1242.70552          1242.70554          1945.52873          1359.73369          1239.82565          1243.21408          1206.97260          1242.81419          1361.56194          1243.28874          1242.32196          1239.97242          1242.78397          1242.69513          1242.70139          1243.05418          1243.00783          1104.02980          1242.43857          1242.43820          1076.92712          1243.56016          1242.62296          1243.49625          1242.75013          1245.26124          1242.79986          1242.32701          2866.72433          1018.55933          1242.68975          1795.91253          1242.80443          1242.61074          1242.67919          1242.56745          1242.55892          1243.26463          1185.48587          1242.58251          1242.56874          1245.26880          1242.67463          1242.81875          1242.71197          1242.59345          1242.65938          1242.57865          1242.68261          1859.14585          2268.20932          1239.36800          1242.61052          1222.03827          1242.83108          1242.51884          1242.50289          1242.67480          1242.58550          1241.17683          1242.68454          3432.19639          2842.97315          1242.77049          1242.82597          1245.66122          1242.77197          1041.52790          1242.51353          1242.43126          1242.49559          1242.49004          3866.81062          1242.44458          1242.56098          1242.44175          1793.69536          1199.50571          1245.33770          1246.12831          1355.86535          1242.80980          1242.60612          1242.42606          1254.56368          1242.50737          1242.60268          1862.78762          1209.11530          1243.15885          1235.01873          1242.77527          1242.60088          1244.59591          1243.02078          1242.58602          1272.45898          1240.70466          1242.73731          1242.40634          1349.83848          1242.64506          1242.63064          1242.54918          1245.48486          1242.70381          1242.41710           497.18813          1242.60892          1242.70760          1241.44019          1242.49635          2199.57125          1022.53749          1220.98507          1242.40987          1324.34556          1242.41353          1242.81612          1322.63071          1321.36738          1243.21013          1346.02860          1245.96173          1230.12307          1242.83349          1324.18271          1242.63934          1358.31476          1242.69134          1244.44681          1007.99160          1245.52165          1241.23184          1242.43867          1242.54721          1242.79437          1241.49786          1242.58186          1225.40669          1242.62239          1242.78636          1261.71624          2147.61018          1242.82223          1242.79034          1229.85451          3934.98377           879.59085          1242.67402          1242.49708          1265.93582          1222.86866          1242.53330          1242.52150          1228.85156          1242.62590           600.57470          1242.49747          1242.51352          1244.29506           857.86514          1552.17650          1243.41432          1718.06170           959.04124          1242.71804          1242.64200          1242.55629          1242.61044          1263.71839          1780.26833          1279.73706          1242.50121          1247.43951          1462.56693          1083.12956          1242.43057           565.17077          1242.53555           452.61830          1242.48663          1316.26113          1242.55699          1225.86709          4886.78314          1242.61465          1540.20502           649.02880          1241.53867          1242.50794          1242.82212          1181.10585          2103.87523          1244.64855          1889.80217          1236.46170          2876.44679           720.46812          1241.15357          1241.63147          1242.63374           754.99332          1242.78773          1317.26083          1258.48539          1354.02932          1275.72308          1242.98359          1295.88493           789.81024          1246.39383          1245.18761          1319.51126          1242.65120          1242.81314          2079.09118          1242.80281          1242.51635          4512.79319          1241.77123          1006.64597          1265.60666           599.98267          1131.31877          1744.23306          1266.88107          1255.42751          1242.53741          1242.47153           998.79755          1242.03658          1242.52644          1305.37306          1242.40100          1242.52873           990.89392          1242.66104          4029.59024          1242.63592          1384.79291          1242.31389          1241.36818          1243.45060          1245.59855          1242.21089          1242.79254          1242.64511          1245.73780          1276.20544          1244.17431          1242.43373          1242.28579          1242.70040          1242.66101          1359.02694          1242.69136          1242.78036          1338.63557          1410.92382          1227.97419          1236.28682          1242.99855          1242.50792          1259.74884          1242.76993          2240.31780           927.89653          1242.21826          1241.72401          1377.12872          1242.81942          1242.27694          1242.98934          1247.75498          1242.46569          1242.71843          1242.77759          3032.23713          1242.61611          1275.67229          1242.78979          1242.80881          1242.75808          1242.49101          1242.59429          1239.40108          2215.66841          1019.44946           603.31858          1247.30644          1242.73344          1242.49756          1244.77663          1242.73978          1242.55205          1242.50704          1239.01131          1242.55467          1242.66577          1242.50310          1242.52029          1242.72207          1243.21576          1242.73682          1242.76218          1243.36341          1224.12448          1229.05060          1242.83009          1243.75352          1243.36089          1221.88844          1242.67540          1236.09453          1945.14603          1242.59063          1242.86251          1242.49241          1242.74635          1242.58360          1336.18765          1242.82064          1264.43588          1242.77930          1242.78794          1223.03002          1636.86070          1266.81197          1244.46289           951.04838          1316.20304          1242.51511          1355.94467          1242.62302          1278.18569          1243.68670          1242.56864          1242.53747          1242.77819           485.38996          1321.84410          1269.27270          1301.07810          1242.50335          1242.77161          4664.65990          1242.50964          1242.48578          1242.49962          1220.62578          1242.12410          1242.70639          1242.53482          1241.41593          1197.49911          1240.54273           406.09669          1250.66444          1239.81322          1242.61475          1242.54580          1299.83126          1242.50277          1200.47800          1243.40944          1262.97679          1242.79971          1242.50715          1242.80311          1242.58458          1242.56204          1242.48810          1242.80805          1242.65986          1242.50544          1242.58070          1242.61458          1370.26965          1242.53257          1248.15194          1372.43760          1685.16710          1272.53858          1163.36246           985.24645          1242.79733          1242.78657          1244.03363          1242.74378          1102.95976          1267.93100          1242.61572          2302.54329          1242.64667          1242.73819          1014.06219          1242.56796          1240.87839          1242.69288          1242.25586          1256.91974          1192.12934          1242.71833          1433.52109          1242.52622          1242.40036          1242.40183          1273.74243          3843.91955          1245.47360          1230.09223          1243.15043          1242.74364          1242.75206          1242.83106          1242.24068          3008.73320          1240.92458          1242.73572          1242.79794          1242.43753          1969.14978          1242.82793          1243.35516          1240.82863          1242.60767          1242.85424          1242.77839          1242.81808          1242.52997          1242.57554          1242.68905          1178.35950          1243.15904          1242.59680          1242.71438          1269.86469          1214.44329          1242.68689          1168.36937          1242.52866          1800.96032          1242.70224          1284.01114          1230.37831          1237.60011           600.79705          1243.18860          1256.09895          4418.87161          1244.27371          1242.68147          1242.55464          1129.42934          1239.48920          1242.58915          1242.50738          1242.62062          1277.52005          1281.53974          1242.32388          1129.92209          1229.59158          1585.77907          1244.44696          1038.90947          1320.06068          1246.02512          1247.28599          1242.35139          1320.45377          1242.65651          1242.50287          1892.84906          1260.04186          1218.71409           845.36000          1242.62542          1242.01321          1242.77881          1243.07853          1242.53135           516.95477          1242.50786          1242.61709          1242.84852          1242.50300          1316.09303          1242.44426          1242.70372          1191.91722          1021.40097          1242.68041          1243.12102          1752.32379          1242.66269          1242.63828          1242.69996          1173.64067          1242.62994          1241.38849          1242.50513          1242.51259          1243.29560          1339.31244          1235.65490          1239.83454           538.77723          1279.45458           839.08497          1230.90239          1242.34874          1242.61733          1234.03779          1244.43045          1242.75064          1242.54014          1242.57134          1128.35794          1232.14997          1246.15038           309.55977          1243.23116          1302.34927          1239.94469          1243.80689          1242.23334          1242.49647          1245.04636          2172.57333          1242.65056          1242.50638          1242.68743          1242.77798          1069.68835          1242.58792          1242.80330          1242.74723          1138.08854          1242.53952          1244.75435          1066.40664          1244.29095          1243.15531          1239.92004          1242.79795          1242.52444          1242.80101          1236.70303          1294.46883          1383.08241          1242.42478          1242.63419           899.14300          1006.86615          1242.50113          1242.42086          1242.10458          1242.52173          1241.57622          1242.41426          1298.94545          1242.57095          1258.00697          1242.61036          1242.70351          2185.98969          1242.72282          1242.61137          1245.04625          1432.66321          1242.56582          1242.54159          1245.18439          1242.67950          1242.76313          1297.23614          1242.32369          1243.45082          1242.52554          1243.01354           670.33849          1242.76107          1241.74305          1170.64392          1233.45531          1242.50171          1656.25587          1242.73361           951.99949          1232.97722          1242.80273          1214.14861          1242.80979           744.80605          1242.53113          1242.08292          2258.70670          1306.98757          1242.58609          1248.52021          1245.49008          1295.64229          1239.01719          1018.50984          1240.31715          1243.13134          1213.43011          1241.55846           425.96102          1237.81936          1242.50155           794.09942          1242.51200           531.75291          1242.53819          1184.85486          1242.69659          1242.86101          1242.50997          1242.57961          1242.59982          1242.83524          1253.90862          1266.66086          1065.32534          1242.85386          1242.85847          1242.81779          1575.60655          1242.56573          1242.67193          1242.84528          1242.84619          1242.80937           642.09729          1245.73502          1242.81719          1243.00044          1243.03744          1234.14223          1242.83650          1242.56313          1242.83317          1242.03398          1242.48531          1242.55945          1245.10764          1184.35549          1243.03611           930.64732          1242.75694          1244.41654          1242.83174          1242.48588          1242.52577          1242.58660          1242.50109          1242.83216          1242.76163          1160.16888          1242.82002          1240.39834          1242.55400          1243.10282          1244.28757          1242.53946          1235.92193          1242.74927          1718.39690          1242.45433          1618.60690          1283.16104          1242.49304          1221.55341          1243.28484          1252.69059          1242.46199          1242.70779          1242.94788          1243.03375           442.93205          1242.71971          1248.66773          1246.73516          1329.98055          1244.26031          1241.25942          1244.07153          1242.59753          1242.66223          1241.12284          1353.76056          1885.56347          1242.52954           383.49498          1238.80554          1268.71425          1704.44932          1242.72424          1373.85819           779.03196          1242.50533          1242.50253          1242.70126          1242.96288          1242.67184          1242.66255          2756.44088          1213.89577          1242.83202          1242.40706           975.72908           919.42934          1243.12296          1343.20326          1242.81912           864.95745          1247.87072          1242.62510          1241.31669          1242.69001          1242.83004          1242.24938          1227.42915          1242.71333          1242.77205          1242.71271          1266.05174          2057.24739          1581.35001          1242.61308          1248.01268          1242.82063          1242.79152          1242.84121          1242.24882          1241.48352          1242.78509          1243.46286          1749.51495          1242.65158          1242.79401          1242.76347          1242.43886          1242.84267          1353.17741          1242.43794          1227.79475           723.14986          1867.57931          1242.76829          1242.71607          1242.80624          1242.43143          1242.56372           710.32010          1275.47743          1241.67406          1242.70287          1242.76350          1242.82091          1242.51087          1265.87177          1242.62071          1273.31105          1244.11475          1242.85621          1242.54445          1242.68615          1223.91937          1242.74214          1241.35314          1242.57792          1242.72247          2469.64332          1240.79312          1240.25331          1105.34361           874.01885          1580.46201          1242.45927          1173.48332          1961.46303          1241.79952          1241.64140          1242.41148          1354.01937          1242.40411          1242.39023          1242.52557          1242.63417          1069.39579           392.23834          1242.80992          1242.82140          1244.11269          1527.78391          1242.79297          2267.96485          1248.78835          1242.43838          1242.54024           326.21495          1242.58448           951.25929          1249.40288          1326.50101          1242.72426          1089.26597          1235.84977          1274.53074          1241.71051          1521.92953          1242.49910           464.24678          1242.70219          1281.37380          2894.94833          1214.20634          1242.86186           937.49148          1241.56414          1249.47345          1244.18584          1350.76792           825.88496          1242.72173          1242.50392          1249.86088           626.63326          1242.74484          1242.55326           987.37141           979.62890          1263.52100          1242.71772           527.80480          1229.75337          1198.86957          1235.12717          1242.51848          1242.64242          1242.65691          2493.41768          1242.49197          1242.48393          1242.47347          1242.75633          1242.62879          1240.22220          1242.74013          1242.49406          1240.40299          1242.83709          2396.71070          1242.43265          1242.80421          1242.57427          1242.74748          1242.57935          1130.61080          1242.44860          1242.59566          1242.50252          1242.68346          1242.55604          1242.48660          1241.64045          1164.28431          1886.56862          1225.41194          1235.14471          1242.77115          1294.36887          1221.46249          1242.50201          1242.55319          1242.39638          1242.79977          1242.42066          1242.81283          1017.27852          1242.53243          1240.37745          1244.14860          1247.56468          1215.16490          1242.61971          1242.54550          1222.74125          1386.09696          1973.64766          1207.89636          1242.94065          1256.81778          1242.92932          1640.90140          1242.74126          1242.16683          1242.67061          1302.75478          1234.62288          1231.12200          1242.83940          1261.53765          1135.75841          1242.61707          1242.72913          1242.81363          1244.68893          1242.59559          1242.69916          1167.58612          1242.19828          1161.89482          2598.12319          1245.05136          1242.62042          1241.33704          1242.71010          1242.58628           677.63231          1234.92378          1242.66412          1367.03860          1242.72307          4031.45256          1225.16749          1242.56266          1242.42562          1242.54851           666.86458           974.99572          1242.80611          1100.56244          1242.75994          1285.25155          1118.65068          1220.05903          1256.92184          1242.33260          1242.53721          1187.79304          1258.27020          1382.61883          1242.54523          1243.32882          1244.29647          1351.70040          1242.64657          1241.60357          1275.59287          2227.39657           809.15192          1322.96100          1242.51840          1241.09298          1242.74460          1240.45710          1244.25549          1242.65826          1242.75046          1242.54817          1248.47830          1242.74713          1242.52771          1242.71839          1293.31327           966.03475          1242.85422          1242.81546          1242.52044          1242.89588          1242.46437          1239.51416          1243.43784          1242.54922           626.89340          1242.56665          1243.01484           917.00403          1243.92848           639.52243          1242.59258          1341.08684          1241.43596          1231.074