# vtk DataFile Version 3.0
Output from R2
ASCII
DATASET UNSTRUCTURED_GRID
POINTS       5984 double
    -7.69000  2968.10000   0.
     0.00000  2968.10000   0.
     1.54000  2966.60000   0.
     3.08000  2964.90000   0.
     4.61000  2964.10000   0.
     6.15000  2963.30000   0.
     7.69000  2962.60000   0.
     9.23000  2961.50000   0.
    10.76000  2960.70000   0.
    12.30000  2960.00000   0.
    13.84000  2959.30000   0.
    15.38000  2958.70000   0.
    16.91000  2958.10000   0.
    18.45000  2957.30000   0.
    19.99000  2956.60000   0.
    21.52000  2955.80000   0.
    23.06000  2955.00000   0.
    24.60000  2954.30000   0.
    26.14000  2953.50000   0.
    27.68000  2952.80000   0.
    29.21000  2951.90000   0.
    30.75000  2951.10000   0.
    32.29000  2950.20000   0.
    33.83000  2949.50000   0.
    35.36000  2948.70000   0.
    36.90000  2948.10000   0.
    38.44000  2947.30000   0.
    39.98000  2946.70000   0.
    41.51000  2946.10000   0.
    43.05000  2945.50000   0.
    44.59000  2945.10000   0.
    46.13000  2944.50000   0.
    47.66000  2944.10000   0.
    49.20000  2943.60000   0.
    50.74000  2943.40000   0.
    52.28000  2943.00000   0.
    53.81000  2942.50000   0.
    55.35000  2942.10000   0.
    56.89000  2941.60000   0.
    58.43000  2941.00000   0.
    59.96000  2940.60000   0.
    61.50000  2940.10000   0.
    63.04000  2939.50000   0.
    64.58000  2939.10000   0.
    66.11000  2939.20000   0.
    67.65000  2939.20000   0.
    69.19000  2939.10000   0.
    70.73000  2938.90000   0.
    72.26000  2938.60000   0.
    73.80000  2938.30000   0.
    75.34000  2938.50000   0.
    76.88000  2938.70000   0.
    78.41000  2938.60000   0.
    79.95000  2938.80000   0.
    81.49000  2938.90000   0.
    83.03000  2939.10000   0.
    84.56000  2939.10000   0.
    92.25000  2939.10000   0.
    -7.69000  2960.92000   0.
    -2.14000  2960.92000   0.
     3.42000  2957.55000   0.
     8.97000  2954.51000   0.
    14.52000  2951.86000   0.
    20.07000  2949.38000   0.
    25.63000  2946.59000   0.
    31.18000  2943.67000   0.
    36.73000  2940.99000   0.
    42.28000  2938.62000   0.
    47.83000  2936.87000   0.
    53.39000  2935.46000   0.
    58.94000  2933.69000   0.
    64.49000  2931.95000   0.
    70.04000  2931.81000   0.
    75.60000  2931.36000   0.
    81.15000  2931.70000   0.
    86.70000  2931.92000   0.
    92.25000  2931.92000   0.
  -430.51000  2968.10000   0.
  -430.51000  -260.87000   0.
   515.07000  2939.10000   0.
   515.07000  -260.87000   0.
    -6.92100  2968.10000   0.
    -6.15200  2968.10000   0.
    -5.38300  2968.10000   0.
    -4.61400  2968.10000   0.
    -3.84500  2968.10000   0.
    -3.07600  2968.10000   0.
    -2.30700  2968.10000   0.
    -1.53800  2968.10000   0.
    -0.76900  2968.10000   0.
     0.51333  2967.60000   0.
     1.02667  2967.10000   0.
     2.05333  2966.03333   0.
     2.56667  2965.46667   0.
     3.59000  2964.63333   0.
     4.10000  2964.36667   0.
     5.12333  2963.83333   0.
     5.63667  2963.56667   0.
     6.66333  2963.06667   0.
     7.17667  2962.83333   0.
     8.20333  2962.23333   0.
     8.71667  2961.86667   0.
     9.74000  2961.23333   0.
    10.25000  2960.96667   0.
    11.27333  2960.46667   0.
    11.78667  2960.23333   0.
    12.81333  2959.76667   0.
    13.32667  2959.53333   0.
    14.35333  2959.10000   0.
    14.86667  2958.90000   0.
    15.89000  2958.50000   0.
    16.40000  2958.30000   0.
    17.42333  2957.83333   0.
    17.93667  2957.56667   0.
    18.96333  2957.06667   0.
    19.47667  2956.83333   0.
    20.50000  2956.33333   0.
    21.01000  2956.06667   0.
    22.03333  2955.53333   0.
    22.54667  2955.26667   0.
    23.57333  2954.76667   0.
    24.08667  2954.53333   0.
    25.11333  2954.03333   0.
    25.62667  2953.76667   0.
    26.65333  2953.26667   0.
    27.16667  2953.03333   0.
    28.19000  2952.50000   0.
    28.70000  2952.20000   0.
    29.72333  2951.63333   0.
    30.23667  2951.36667   0.
    31.26333  2950.80000   0.
    31.77667  2950.50000   0.
    32.80333  2949.96667   0.
    33.31667  2949.73333   0.
    34.34000  2949.23333   0.
    34.85000  2948.96667   0.
    35.87333  2948.50000   0.
    36.38667  2948.30000   0.
    37.41333  2947.83333   0.
    37.92667  2947.56667   0.
    38.95333  2947.10000   0.
    39.46667  2946.90000   0.
    40.49000  2946.50000   0.
    41.00000  2946.30000   0.
    42.02333  2945.90000   0.
    42.53667  2945.70000   0.
    43.56333  2945.36667   0.
    44.07667  2945.23333   0.
    45.10333  2944.90000   0.
    45.61667  2944.70000   0.
    46.64000  2944.36667   0.
    47.15000  2944.23333   0.
    48.17333  2943.93333   0.
    48.68667  2943.76667   0.
    49.71333  2943.53333   0.
    50.22667  2943.46667   0.
    51.25333  2943.26667   0.
    51.76667  2943.13333   0.
    52.79000  2942.83333   0.
    53.30000  2942.66667   0.
    54.32333  2942.36667   0.
    54.83667  2942.23333   0.
    55.86333  2941.93333   0.
    56.37667  2941.76667   0.
    57.40333  2941.40000   0.
    57.91667  2941.20000   0.
    58.94000  2940.86667   0.
    59.45000  2940.73333   0.
    60.47333  2940.43333   0.
    60.98667  2940.26667   0.
    62.01333  2939.90000   0.
    62.52667  2939.70000   0.
    63.55333  2939.36667   0.
    64.06667  2939.23333   0.
    65.34500  2939.15000   0.
    66.88000  2939.20000   0.
    68.42000  2939.15000   0.
    69.70333  2939.03333   0.
    70.21667  2938.96667   0.
    71.24000  2938.80000   0.
    71.75000  2938.70000   0.
    72.77333  2938.50000   0.
    73.28667  2938.40000   0.
    74.31333  2938.36667   0.
    74.82667  2938.43333   0.
    75.85333  2938.56667   0.
    76.36667  2938.63333   0.
    77.64500  2938.65000   0.
    78.92333  2938.66667   0.
    79.43667  2938.73333   0.
    80.72000  2938.85000   0.
    82.00333  2938.96667   0.
    82.51667  2939.03333   0.
    83.79500  2939.10000   0.
    85.32900  2939.10000   0.
    86.09800  2939.10000   0.
    86.86700  2939.10000   0.
    87.63600  2939.10000   0.
    88.40500  2939.10000   0.
    89.17400  2939.10000   0.
    89.94300  2939.10000   0.
    90.71200  2939.10000   0.
    91.48100  2939.10000   0.
    -6.30250  2960.92000   0.
    -4.91500  2960.92000   0.
    -3.52750  2960.92000   0.
    -1.02800  2960.24600   0.
     0.08400  2959.57200   0.
     1.19600  2958.89800   0.
     2.30800  2958.22400   0.
     4.53000  2956.94200   0.
     5.64000  2956.33400   0.
     6.75000  2955.72600   0.
     7.86000  2955.11800   0.
    10.35750  2953.84750   0.
    11.74500  2953.18500   0.
    13.13250  2952.52250   0.
    15.90750  2951.24000   0.
    17.29500  2950.62000   0.
    18.68250  2950.00000   0.
    21.18200  2948.82200   0.
    22.29400  2948.26400   0.
    23.40600  2947.70600   0.
    24.51800  2947.14800   0.
    26.74000  2946.00600   0.
    27.85000  2945.42200   0.
    28.96000  2944.83800   0.
    30.07000  2944.25400   0.
    32.56750  2943.00000   0.
    33.95500  2942.33000   0.
    35.34250  2941.66000   0.
    38.11750  2940.39750   0.
    39.50500  2939.80500   0.
    40.89250  2939.21250   0.
    43.66750  2938.18250   0.
    45.05500  2937.74500   0.
    46.44250  2937.30750   0.
    49.22000  2936.51750   0.
    50.61000  2936.16500   0.
    52.00000  2935.81250   0.
    54.77750  2935.01750   0.
    56.16500  2934.57500   0.
    57.55250  2934.13250   0.
    60.32750  2933.25500   0.
    61.71500  2932.82000   0.
    63.10250  2932.38500   0.
    65.87750  2931.91500   0.
    67.26500  2931.88000   0.
    68.65250  2931.84500   0.
    71.43000  2931.69750   0.
    72.82000  2931.58500   0.
    74.21000  2931.47250   0.
    76.98750  2931.44500   0.
    78.37500  2931.53000   0.
    79.76250  2931.61500   0.
    82.53750  2931.75500   0.
    83.92500  2931.81000   0.
    85.31250  2931.86500   0.
    88.08750  2931.92000   0.
    89.47500  2931.92000   0.
    90.86250  2931.92000   0.
    -7.69000  2967.35264   0.
    -7.69000  2966.52748   0.
    -7.69000  2965.61644   0.
    -7.69000  2964.61056   0.
    -7.69000  2963.49998   0.
    -7.69000  2962.27381   0.
    92.25000  2938.35264   0.
    92.25000  2937.52748   0.
    92.25000  2936.61644   0.
    92.25000  2935.61056   0.
    92.25000  2934.49998   0.
    92.25000  2933.27381   0.
    -8.49328  2968.10000   0.
    -9.37122  2968.10000   0.
   -10.33076  2968.10000   0.
   -11.37949  2968.10000   0.
   -12.52568  2968.10000   0.
   -13.77840  2968.10000   0.
   -15.14756  2968.10000   0.
   -16.64397  2968.10000   0.
   -18.27946  2968.10000   0.
   -20.06696  2968.10000   0.
   -22.02060  2968.10000   0.
   -24.15581  2968.10000   0.
   -26.48948  2968.10000   0.
   -29.04004  2968.10000   0.
   -31.82766  2968.10000   0.
   -34.87437  2968.10000   0.
   -38.20425  2968.10000   0.
   -41.84362  2968.10000   0.
   -45.82125  2968.10000   0.
   -50.16857  2968.10000   0.
   -54.91994  2968.10000   0.
   -60.11292  2968.10000   0.
   -65.78855  2968.10000   0.
   -71.99170  2968.10000   0.
   -78.77138  2968.10000   0.
   -86.18119  2968.10000   0.
   -94.27968  2968.10000   0.
  -103.13088  2968.10000   0.
  -112.80473  2968.10000   0.
  -123.37771  2968.10000   0.
  -134.93337  2968.10000   0.
  -147.56304  2968.10000   0.
  -161.36656  2968.10000   0.
  -176.45302  2968.10000   0.
  -192.94166  2968.10000   0.
  -210.96281  2968.10000   0.
  -230.65890  2968.10000   0.
  -252.18562  2968.10000   0.
  -275.71308  2968.10000   0.
  -301.42726  2968.10000   0.
  -329.53140  2968.10000   0.
  -360.24763  2968.10000   0.
  -393.81871  2968.10000   0.
  -430.51000  2929.65988   0.
  -430.51000  2891.21976   0.
  -430.51000  2852.77964   0.
[...]
POINT_DATA      5984
CELL_DATA     11506
SCALARS Resistivity(ohm.m) double 1
LOOKUP_TABLE default
           100.00005           100.00006           306.05191           100.06746          3682.55232           100.06365           100.01500           100.01667          2102.82321           452.41517           135.76753           100.51717           302.93968           100.00000           652.93325           100.52676           100.00001           134.75843           100.22141           100.05019           100.04171           100.13517           100.11504           980.91075           100.00039           100.00032           459.82642           100.53378           100.00044           100.46673           100.18497           107.60002           100.00677           100.00001          3301.01415           461.56691           100.17914          1734.46856           100.00676           100.41443           100.01015           100.00003           100.00003           336.04875           318.54079           100.36055           100.00000           107.91745           100.18207           100.00000           100.09347           100.00000           100.00897           100.00005           100.01367          1943.51546          2065.99284           329.93441           100.00050           240.89652           100.00862           100.00028           100.00028           100.00035           100.00005           110.68974           100.00041          3524.77006          3214.16616           100.01439           100.00871           173.44607           100.01225           930.75744           100.00004           100.00001           100.00164           100.00000          4091.50789           100.00000           100.00060           100.00001          1423.04664           466.75183           109.80028           222.02510           444.04481           100.04143           100.29934           100.00000           411.94981           100.00004           100.00498          1573.86166           468.38143           100.25699           269.20600           100.00000           100.00131           647.83712           100.14209           100.00117           331.59521           137.86988           100.10553           100.00000           627.26347           100.00406           100.00059           100.00008           167.23085           100.31093           100.00000           689.64006           100.00014           100.01114           108.80787           100.00140          2213.53152           464.49499           215.53436           100.00000           559.48227           100.00000           100.00000           553.11645           387.69788           100.29107          1141.66956           161.10675           228.26579           100.00448           389.29705           100.22257           586.20385           100.26855           105.70049           473.28953           110.26134           109.63383           100.00000           100.00007           100.00205           106.09710           100.00083           241.42874           100.00132           100.05897           364.03617          2154.39296           100.00123           100.06481           264.86774          4704.11925           566.19304           100.05014           100.00165           304.64297           402.54117           100.00008           100.00041           194.83875           100.00016           482.75386           100.00000           100.00000           105.66255           479.94533          1209.15242           116.67753          1892.78345           478.82548           100.05915           100.00968           100.00001           100.00585           356.61473          1839.62518           371.69668           100.00040           235.55319           941.50128           463.57246           100.00003           480.64353           100.00002           498.76840           100.00000           452.93196           100.00003           499.49768          5305.42645           100.00000          1014.12693           563.32219           106.71370           103.62979           100.02185           443.85744          1742.89884           107.70814          1629.77142           154.88910          3048.09094           603.69360           148.57437           106.03522           100.09017           492.49435           100.10878           538.07590           658.61887           660.67238           400.68554           100.13575           354.12559           854.02946           168.10699           160.60343           549.92852           100.00168           100.00203          1619.53344           100.09427           100.00064          5001.60165           108.31279           485.16565           277.80168           798.89668           545.02960          1827.02374           288.88294           352.92594           100.00000           100.00000           812.34606           112.80812           100.00000           538.78481           100.00002           100.00051           519.19893           100.00662          4523.41531           100.00608           682.26210           101.02633           108.95812           175.06454           172.67170           101.54934           100.00000           100.08070           393.86898           380.47388           179.89336           100.00000           101.41963           100.03905           100.06106           505.68344           100.04237           100.01634           614.57544           788.01850           223.57157           156.48335           100.11373           100.00016           278.76987           100.01631          2811.34549           611.18495           149.34817           148.90285           510.73745           100.00268           101.17175           100.11787           190.87100           100.00000           102.01807           100.00000          3168.18462           100.00215           354.09616           100.00000           100.02558           100.00000           100.00000           100.00232           138.53216          2818.36360           491.34268           468.67014           210.99052           100.45342           100.00000           132.47262           100.39019           100.00003           100.00138           141.10175           100.00003           100.01325           100.00007           100.00276           100.02300           100.27747           100.02443           100.01175           100.34306           223.91909           232.81312           100.19067           161.72440           100.60015           233.47600           100.00000           173.49227          1435.03017           100.00001           101.76023           100.00029           100.01075           100.00006           590.59536           100.00237           270.99916           100.01572           100.00000           209.17974          1649.33853           446.39680           107.77987           817.03355           534.82237           100.00241           586.95021           100.00000           490.95191           335.24222           100.00000           100.00000           100.01413           493.71146           383.37404           275.73256           362.98889           100.00005           100.00186          5719.91518           100.00006           100.00018           100.00006          1122.19642           110.97219           100.14461           103.14314           108.00185           288.92947           137.45399           566.14376           383.88497           135.37088           100.00000           100.00070           480.64151           100.00000           390.17415           100.71628           259.50845           100.00311           100.00000           100.00331           100.00001           101.62759           100.00033           100.00305           100.00000           102.90231           100.00001           100.00026           489.93731           100.00006           199.67625           492.68136          1263.48093           392.87899           447.87161           494.76652           100.01127           100.01239           109.50312           100.00000           553.55057           367.78252           100.00338          2545.52179           100.00389           100.00000           505.76038           100.00067           131.95901           100.14209           105.61961          1113.84813           302.89786           100.03377           825.18431           100.00006           100.00000           100.00000           341.11515          4340.50527           116.62989           609.28342           102.44092           100.03037           100.00000           100.00748           106.53119          2943.40472           134.49817           100.00000           100.00584           100.00000          1515.52634           100.00853           100.40620           147.89059           100.20654           100.19353           100.01209           100.00766           100.00002           101.39240           100.38354          1066.59470           156.03451           100.00012           100.00589           567.77808           238.13922           101.15488           353.00699           100.00053          1483.42446           100.00653          1165.78920           457.92787           149.48052           594.94879           100.58230           369.99010          4969.15688           108.83297           100.89996           100.00041           609.80877           138.36460           100.00009           100.00000           100.00642           379.98040           394.28169           101.79194           403.42794           189.01914          1216.31446           109.06349           488.78082           377.75328           191.33905           203.71312           176.38409           556.70257           100.26172           100.00002          2041.99567           276.93871           224.90107           563.91163           100.22450           107.85036           100.00000           100.21026           100.00000           463.19811           100.00009           100.00022           100.00000           100.00000           373.85826           100.00005           100.00000           315.34190           665.46062           100.13653           100.53296          1366.82436           100.15504           100.00021           100.00000           401.33160           100.00019           109.90693           100.00000           100.00013           100.29054           416.67800           158.05859           140.52089           483.65844           380.41426           541.62623           183.88547           102.63579           100.18653           387.26659           125.68857           104.60525           100.00064           100.00060           485.00270           181.80049           493.13511           599.66043           100.70703           863.95245           133.36806           155.94114           103.63243           100.00000           189.33685          2200.99026           100.00000           100.00010           100.00047           100.01093           451.47882           100.00010           100.00238           100.00690           391.82133           100.00001           215.05393           666.39513           184.78427           102.08364           233.55737           100.00221           100.00105           100.00175           183.61465           348.79300           692.94230           271.04175           100.00456           582.31449           487.97273           100.00053           100.00000           101.72063           100.00000           105.50477           100.00000           483.74601           100.00004           349.83360           100.00008           100.00000          2879.04240           100.01289           100.00008           118.54471          1047.37167           100.00008           100.00036           115.64910           100.00053           100.00000           473.05940           103.59812           100.41896           100.00002           100.12692           583.84839           100.00000           151.92775           345.01266           689.70546           100.00007          1221.03471           100.03077           524.12894           171.49600           100.02453           904.02021           100.00330           474.37779           100.00058           154.75648          1990.71491           458.74985           100.00007           188.61212           226.47086           492.60453           141.40486           591.73769           127.06261           100.17778           384.79532          1142.81483           582.19575           148.20166           100.00000           502.64230           100.00002           459.00292           100.00000           434.72599           100.99607           100.05459           100.00006           100.00296           100.00030           100.02037           211.85640           268.31915           772.71372           100.03457           100.05334           101.51625          1232.12382           100.23783           100.12801           100.00285           100.00318           100.00175           586.85983           239.80876           100.00777           100.11571           100.13614           165.08740           100.01719           100.00000           100.01536           101.99005           100.00000           100.00000           107.16911           344.25985           105.96134           627.97021           100.00000           132.11572           100.01859           100.00026           100.00016           100.00001           100.00010           100.05806           100.00000           691.02242           100.07502           124.95722           100.00380           101.39681           122.07591           100.00019           170.02390           100.00829          1668.73427           100.00044          1158.83732           389.01092           100.00028           384.48382           106.53117           186.31492           100.00041           100.03866           168.14325           101.26785           475.89107           100.06955           201.50649           269.48894           407.48849           102.34048           143.30431           101.71868           100.00001           100.00463           125.35581           449.38011          2204.93477           100.00002           507.76959           263.86661           412.75260          1308.72307           100.01347           511.54136           930.98659           100.00066           100.00012           100.01188           100.10272           102.20786           100.06774          2922.55112           272.89299           100.00144           100.00000           511.81526           795.80778           100.17414           630.13550           100.00387           817.41105           247.22117           103.95496           122.96545           100.01063           100.00750           103.12985          1113.34643           100.00000           100.28085           100.00767           298.93286          2007.23708          1256.17836           100.00008           169.59289           100.04815           100.00491           100.00381           101.25692           106.77539           100.43718           159.97258          1563.16134           100.00155           100.38017           100.00223           100.00004           100.31529           499.47972           102.45401           217.35900           498.06517          2186.58732           100.00000           100.15828           100.00508           103.02658           100.00003           835.50428           388.47234           158.88392           100.00000           100.00000           100.00000           100.00027           291.34732           100.00016           526.05044           101.77779           100.00513           100.00002           100.01066           546.17303           100.03241           106.75783           100.00001           100.03249          2443.61516           115.73066           141.48482           545.68305           750.85814          1090.30225           100.00000           453.30563          1691.73577           115.36222           104.57704           100.00001          1082.62547           100.00000           100.00001           100.00007           105.05451           742.95724           530.12734           100.05404           101.31141           103.46874           993.53657           100.00498          3022.55820           136.20947           100.00000           100.00315           521.19153           100.00518           487.25030           205.08580           560.01611           100.15706           806.05051           179.60732           349.59959           103.97175          1203.61010           100.00000           466.27944           100.13884           379.77380          3508.50638           455.04442           101.20996           474.74467           107.70842           142.59914           103.50652           432.79500           854.70942           100.10017           100.00008           214.70027           808.61301           100.08679           100.00034          1019.85586           472.91999           541.42825           100.00000           487.57291           221.79286           306.45330           163.35171           100.36511           100.08714           100.19279          2957.33041           100.00000           100.32862           100.35575           100.02832           100.00064           133.59162           100.00000           100.00000           184.53728           100.00522          2317.74205           100.68688           100.00115           100.00469           140.68938           100.00009           759.80905           100.00000           100.00122           100.00011           100.02388           100.00001           100.00001           106.42269           542.88296          2106.01211           272.94216           340.85736           100.03308           508.05096           215.21941           100.00001           100.00004           100.96709           100.02042           100.00000           100.02053           942.14432           100.00029           126.31811           164.29466           132.50327           488.64766           100.00010           100.00001           221.39320           706.79234          2372.38158           356.63175           100.64685           359.33848           100.54245          1705.63658           100.00000           101.56566           100.01434           489.37331           172.20497           177.77251           100.00461           422.56767           516.84937           100.00000           100.00000           100.00242           104.46446           100.19705           100.00000           518.85480           101.43916           882.44776          2822.40155           116.27679           100.18148           120.35366           100.01568           103.55410           558.92925           162.76198           100.61468           953.90234           101.68012          4174.63759           250.88661           100.00001           100.00000           100.00001           608.50535           628.40336           100.00454           531.17297           100.00191           407.80994           415.83292           267.85739           240.66537           102.01171           100.00000           521.23928           267.63642           682.49940           100.00001           100.40199           103.58191           440.87544           100.07681           173.95317           357.10543          1601.74819           776.50905           398.21422           100.00218           175.80815           100.00221           172.18545           167.87429           101.26842           100.02718           100.00000           133.21362           100.03317           100.00000           100.00000           444.58824           474.47595           100.04917           100.01445           100.00221           165.24962           100.00000           172.44429           107.02491           100.00068           492.59128           100.00074           100.17876           475.10874           110.71530           481.09540           100.00001           575.01045           145.49783           178.331