# vtk DataFile Version 3.0
Output from R2
ASCII
DATASET UNSTRUCTURED_GRID
POINTS       7930 double
    -4.84000     0.00000   0.
     0.00000     0.00000   0.
     1.00000    -0.02000   0.
     2.00000     0.06000   0.
     2.99000     0.18000   0.
     3.98000     0.34000   0.
     4.96000     0.50000   0.
     5.95000     0.66000   0.
     6.94000     0.82000   0.
     7.93000     0.98000   0.
     8.92000     1.11000   0.
     9.89000     1.34000   0.
    10.88000     1.51000   0.
    11.86000     1.68000   0.
    12.84000     1.91000   0.
    13.82000     2.07000   0.
    14.80000     2.27000   0.
    15.78000     2.47000   0.
    16.77000     2.61000   0.
    17.76000     2.77000   0.
    18.73000     3.02000   0.
    19.72000     3.12000   0.
    20.70000     3.32000   0.
    21.69000     3.51000   0.
    22.67000     3.66000   0.
    23.67000     3.76000   0.
    24.64000     3.99000   0.
    25.64000     4.07000   0.
    26.59000     4.39000   0.
    27.55000     4.65000   0.
    28.53000     4.88000   0.
    29.52000     4.98000   0.
    30.48000     5.26000   0.
    31.47000     5.43000   0.
    32.46000     5.58000   0.
    33.44000     5.75000   0.
    34.42000     5.93000   0.
    35.39000     6.20000   0.
    36.38000     6.32000   0.
    37.34000     6.58000   0.
    38.33000     6.75000   0.
    39.29000     7.04000   0.
    40.26000     7.25000   0.
    41.23000     7.51000   0.
    42.20000     7.74000   0.
    43.16000     8.05000   0.
    44.10000     8.37000   0.
    45.05000     8.70000   0.
    46.04000     8.78000   0.
    47.02000     8.98000   0.
    48.00000     9.17000   0.
    48.93000     9.56000   0.
    49.90000     9.80000   0.
    50.89000     9.88000   0.
    51.82000    10.26000   0.
    52.76000    10.59000   0.
    53.73000    10.85000   0.
    54.61000    11.32000   0.
    55.50000    11.78000   0.
    56.42000    12.18000   0.
    57.30000    12.65000   0.
    58.19000    13.11000   0.
    59.17000    13.29000   0.
    60.17000    13.35000   0.
    60.97000    13.94000   0.
    65.81000    13.94000   0.
    -4.84000   -27.11000   0.
     0.00000   -27.11000   0.
     1.00000   -27.12000   0.
     2.00000   -27.05000   0.
     2.99000   -26.93000   0.
     3.98000   -26.77000   0.
     4.96000   -26.61000   0.
     5.95000   -26.45000   0.
     6.94000   -26.29000   0.
     7.93000   -26.13000   0.
     8.92000   -26.00000   0.
     9.89000   -25.77000   0.
    10.88000   -25.60000   0.
    11.86000   -25.43000   0.
    12.84000   -25.20000   0.
    13.82000   -25.04000   0.
    14.80000   -24.84000   0.
    15.78000   -24.64000   0.
    16.77000   -24.50000   0.
    17.76000   -24.33000   0.
    18.73000   -24.09000   0.
    19.72000   -23.98000   0.
    20.70000   -23.79000   0.
    21.69000   -23.60000   0.
    22.67000   -23.45000   0.
    23.67000   -23.34000   0.
    24.64000   -23.12000   0.
    25.64000   -23.04000   0.
    26.59000   -22.72000   0.
    27.55000   -22.46000   0.
    28.53000   -22.23000   0.
    29.52000   -22.12000   0.
    30.48000   -21.85000   0.
    31.47000   -21.68000   0.
    32.46000   -21.53000   0.
    33.44000   -21.36000   0.
    34.42000   -21.18000   0.
    35.39000   -20.91000   0.
    36.38000   -20.78000   0.
    37.34000   -20.52000   0.
    38.33000   -20.36000   0.
    39.29000   -20.07000   0.
    40.26000   -19.85000   0.
    41.23000   -19.59000   0.
    42.20000   -19.37000   0.
    43.16000   -19.06000   0.
    44.10000   -18.74000   0.
    45.05000   -18.41000   0.
    46.04000   -18.33000   0.
    47.02000   -18.13000   0.
    48.00000   -17.93000   0.
    48.93000   -17.55000   0.
    49.90000   -17.31000   0.
    50.89000   -17.23000   0.
    51.82000   -16.85000   0.
    52.76000   -16.52000   0.
    53.73000   -16.26000   0.
    54.61000   -15.78000   0.
    55.50000   -15.33000   0.
    56.42000   -14.93000   0.
    57.30000   -14.46000   0.
    58.19000   -14.00000   0.
    59.17000   -13.82000   0.
    60.17000   -13.76000   0.
    60.97000   -13.16000   0.
    65.81000   -13.16000   0.
  -309.70000     0.00000   0.
  -309.70000  -210.03000   0.
   370.67000    13.94000   0.
   370.67000  -210.03000   0.
    -4.40000     0.00000   0.
    -3.96000     0.00000   0.
    -3.52000     0.00000   0.
    -3.08000     0.00000   0.
    -2.64000     0.00000   0.
    -2.20000     0.00000   0.
    -1.76000     0.00000   0.
    -1.32000     0.00000   0.
    -0.88000     0.00000   0.
    -0.44000     0.00000   0.
     0.33300    -0.00700   0.
     0.66700    -0.01300   0.
     1.33300     0.00700   0.
     1.66700     0.03300   0.
     2.33000     0.10000   0.
     2.66000     0.14000   0.
     3.32000     0.23300   0.
     3.65000     0.28700   0.
     4.30700     0.39300   0.
     4.63300     0.44700   0.
     5.29000     0.55300   0.
     5.62000     0.60700   0.
     6.28000     0.71300   0.
     6.61000     0.76700   0.
     7.27000     0.87300   0.
     7.60000     0.92700   0.
     8.26000     1.02300   0.
     8.59000     1.06700   0.
     9.24300     1.18700   0.
     9.56700     1.26300   0.
    10.22000     1.39700   0.
    10.55000     1.45300   0.
    11.20700     1.56700   0.
    11.53300     1.62300   0.
    12.18700     1.75700   0.
    12.51300     1.83300   0.
    13.16700     1.96300   0.
    13.49300     2.01700   0.
    14.14700     2.13700   0.
    14.47300     2.20300   0.
    15.12700     2.33700   0.
    15.45300     2.40300   0.
    16.11000     2.51700   0.
    16.44000     2.56300   0.
    17.10000     2.66300   0.
    17.43000     2.71700   0.
    18.08300     2.85300   0.
    18.40700     2.93700   0.
    19.06000     3.05300   0.
    19.39000     3.08700   0.
    20.04700     3.18700   0.
    20.37300     3.25300   0.
    21.03000     3.38300   0.
    21.36000     3.44700   0.
    22.01700     3.56000   0.
    22.34300     3.61000   0.
    23.00300     3.69300   0.
    23.33700     3.72700   0.
    23.99300     3.83700   0.
    24.31700     3.91300   0.
    24.97300     4.01700   0.
    25.30700     4.04300   0.
    25.95700     4.17700   0.
    26.27300     4.28300   0.
    26.91000     4.47700   0.
    27.23000     4.56300   0.
    27.87700     4.72700   0.
    28.20300     4.80300   0.
    28.86000     4.91300   0.
    29.19000     4.94700   0.
    29.84000     5.07300   0.
    30.16000     5.16700   0.
    30.81000     5.31700   0.
    31.14000     5.37300   0.
    31.80000     5.48000   0.
    32.13000     5.53000   0.
    32.78700     5.63700   0.
    33.11300     5.69300   0.
    33.76700     5.81000   0.
    34.09300     5.87000   0.
    34.74300     6.02000   0.
    35.06700     6.11000   0.
    35.72000     6.24000   0.
    36.05000     6.28000   0.
    36.70000     6.40700   0.
    37.02000     6.49300   0.
    37.67000     6.63700   0.
    38.00000     6.69300   0.
    38.65000     6.84700   0.
    38.97000     6.94300   0.
    39.61300     7.11000   0.
    39.93700     7.18000   0.
    40.58300     7.33700   0.
    40.90700     7.42300   0.
    41.55300     7.58700   0.
    41.87700     7.66300   0.
    42.52000     7.84300   0.
    42.84000     7.94700   0.
    43.47300     8.15700   0.
    43.78700     8.26300   0.
    44.41700     8.48000   0.
    44.73300     8.59000   0.
    45.38000     8.72700   0.
    45.71000     8.75300   0.
    46.36700     8.84700   0.
    46.69300     8.91300   0.
    47.34700     9.04300   0.
    47.67300     9.10700   0.
    48.31000     9.30000   0.
    48.62000     9.43000   0.
    49.25300     9.64000   0.
    49.57700     9.72000   0.
    50.23000     9.82700   0.
    50.56000     9.85300   0.
    51.20000    10.00700   0.
    51.51000    10.13300   0.
    52.13300    10.37000   0.
    52.44700    10.48000   0.
    53.08300    10.67700   0.
    53.40700    10.76300   0.
    54.02300    11.00700   0.
    54.31700    11.16300   0.
    54.90700    11.47300   0.
    55.20300    11.62700   0.
    55.80700    11.91300   0.
    56.11300    12.04700   0.
    56.71300    12.33700   0.
    57.00700    12.49300   0.
    57.59700    12.80300   0.
    57.89300    12.95700   0.
    58.51700    13.17000   0.
    58.84300    13.23000   0.
    59.50300    13.31000   0.
    59.83700    13.33000   0.
    60.43700    13.54700   0.
    60.70300    13.74300   0.
    61.41000    13.94000   0.
    61.85000    13.94000   0.
    62.29000    13.94000   0.
    62.73000    13.94000   0.
    63.17000    13.94000   0.
    63.61000    13.94000   0.
    64.05000    13.94000   0.
    64.49000    13.94000   0.
    64.93000    13.94000   0.
    65.37000    13.94000   0.
    -3.22700   -27.11000   0.
    -1.61300   -27.11000   0.
    62.58300   -13.16000   0.
    64.19700   -13.16000   0.
    -4.84000    -0.44200   0.
    -4.84000    -0.90700   0.
    -4.84000    -1.39300   0.
    -4.84000    -1.90400   0.
    -4.84000    -2.44000   0.
    -4.84000    -3.00200   0.
    -4.84000    -3.59100   0.
    -4.84000    -4.21000   0.
    -4.84000    -4.85800   0.
    -4.84000    -5.53900   0.
    -4.84000    -6.25200   0.
    -4.84000    -7.00100   0.
    -4.84000    -7.78600   0.
    -4.84000    -8.61000   0.
    -4.84000    -9.47400   0.
    -4.84000   -10.38000   0.
    -4.84000   -11.33100   0.
    -4.84000   -12.32800   0.
    -4.84000   -13.37400   0.
    -4.84000   -14.47200   0.
    -4.84000   -15.62300   0.
    -4.84000   -16.83000   0.
    -4.84000   -18.09700   0.
    -4.84000   -19.42500   0.
    -4.84000   -20.81900   0.
    -4.84000   -22.28100   0.
    -4.84000   -23.81400   0.
    -4.84000   -25.42300   0.
    65.81000    13.49800   0.
    65.81000    13.03400   0.
    65.81000    12.54700   0.
    65.81000    12.03700   0.
    65.81000    11.50100   0.
[...]
POINT_DATA      7930
CELL_DATA     15554
SCALARS Resistivity(Ohm-m) double 1
LOOKUP_TABLE default
             0.68445             0.82150             0.67207             0.76382             8.63789             2.36055             0.69721             0.84054             1.42514            21.17006             0.65099             0.82943             1.32608             0.81033             3.15591             0.62400             1.45932             0.65223             1.50020             1.09952             0.80223             3.51613             1.47995            20.86771             5.47441             0.59426            16.32992             1.76234             2.80690             0.78679             3.43930             0.66673             3.16197             2.25669             1.99036             6.27483             0.81265             0.55859             2.78153             0.86280             0.98747            17.91968             0.66885             0.63945             0.63847             1.58067             3.38206             1.16799             0.84628             3.37759            22.96295             0.53963             1.61451             0.64636             3.38521             0.78332             1.77081             1.17626            20.57460             0.90301             0.55836             0.75859             0.96298             1.67796             3.12627             3.26944             1.23415             1.02330             0.63585             2.37468            22.77653             0.89187             0.81538             0.53957             0.84699             1.17948             0.59793             3.33977             1.20438            12.60665             1.72394             0.64940             1.60888             0.79702             0.72834            21.65801             2.03793             0.59751             0.71226             1.78538             0.94980             2.32133             2.95088             0.70300             0.84904             3.43652             0.72599             0.61117             0.73639             0.73174            18.26606             1.14888             1.22225             0.76645             2.87778             0.63263             7.52063             0.64480             0.65820             0.59056             1.84954             2.19654             0.71033             2.15737             1.45180             0.92964             0.64870             1.30463            12.55310             1.14744            45.99426             0.82380             0.99591            13.73644             5.44240             0.69557             0.64527             1.10923             0.65047             2.42835             5.00812             2.05113             2.40794             1.29831             1.17999             0.77835             2.01389             0.66073             0.72630             2.18945             0.80583             3.53443             0.70389             0.63289             0.66471             2.94907             2.76305             0.53866             1.37733            22.01336             0.82192             2.66149             0.59835             1.04778             1.36500             0.84240             3.51285             2.49089             0.60812             0.64260             0.84248             3.24487             1.07508             9.39174             1.31621             0.72880             2.28068            17.61299             0.64995             0.69322             0.77577             2.25054             1.10514             0.64753             0.65235             1.03656             2.21976             2.48722             1.14358             3.18499             1.90758             0.70034             0.64878             0.69691             1.49909             1.23024             3.64558             1.81140             0.83843            20.57512             1.36219             2.02654             1.91683             0.71526             0.78542             1.96307             0.74829             3.60269             1.88305             0.74717             0.56538             0.54724             1.08565             1.23603             2.50712             0.87329            15.70136             0.71998             1.67475             2.62900             0.65159             1.61268             1.91182             1.01954             0.83111             1.57157            23.56077             1.19764             0.72940             0.82308             1.00470             0.77037            14.43400             1.29769             0.86014             3.78591             1.14465             0.79291             0.75791             0.60070             0.73023             0.63470             0.79817             0.64935             0.83370             0.65642             1.22385             1.63859             2.08901             0.64743             0.82353             0.64087             2.70198             0.53964             1.19993             1.04173             1.07266             0.59313             2.05257             0.64749             0.78905             0.64680             0.79467             0.72225             1.85919             0.64407             1.75475             0.64532             0.54295             0.69970            42.73847             0.56824             5.07971             0.70397             2.04171            41.87327             0.81826             0.82965             0.68051             1.66363             0.58077             5.02457             1.07659             0.65266             0.62363             0.84847             0.65171             1.22269             0.81796             1.26084             1.38938             1.39166             0.78473             0.98813             9.81859             0.73989             0.92970             0.79572             0.91461             0.59463             1.13536             1.31241             1.78400             0.87990             0.98859             2.01236             0.95330             0.97904             0.69298             1.64371             0.56256             1.68390             0.88981             1.14174             2.01649             2.40592             0.85625             2.29241             1.00140             0.86601             2.11650             1.84488             0.65178            10.65375             0.65715             0.66164             0.91914             2.08356             0.58888             0.94184             0.91753             1.53550             1.02398             0.90267             0.69602             4.06734             1.73208             0.65228             1.33944             0.80227             0.64382             1.23817             2.29271             0.75881             1.82388             1.40257             0.83506            23.71800             3.17114             7.04879             2.59206             0.64921             1.95037             2.38606             0.64579             2.89534             0.80694             0.93183             5.28461             0.71552             3.72898             1.02213             0.80597            13.75246             0.85002             0.69360             2.42385             0.62612             1.70386             2.29935             0.63968             3.31271             4.03779             0.64331             1.45576             0.77951             0.57074             0.64701             0.71215             1.14913             0.87344             0.61643             1.33845             8.50453             1.91705             0.56428             0.70444             0.65188             0.93614             1.10100             0.74158             0.65000             0.64685             0.81211             2.27221             0.63842            37.29568             1.88612             0.54626             3.26594             4.77602             0.64288             0.55243             2.26843             1.80116             0.78231             0.82027             1.95750             0.72410             1.19504             1.19782             0.56486             1.48491             0.89225             2.16569             0.75199             1.48008             0.65439             1.46051             2.57946            12.74210             2.14760             0.67575             6.40767             0.73742             1.84448             1.16947             3.18693             0.79010             1.06124             0.76870             0.90893             2.99568             1.65368             0.70797             1.01708             5.02144             0.63074             0.68737             1.00066             0.64213             2.65934             0.93724             0.99753            17.31189             0.96850             1.50529             0.65527             1.55493            12.47898             0.65269             0.77675             0.70623             7.45902             0.99769             2.82317             0.95429             0.69745             7.92306             0.80032             5.03667             1.88735             2.57952             1.49673             0.67284             0.66715            20.52892             1.41587             0.78653             0.65108             0.77789             2.27305             3.66976             1.01078             1.10721            39.38827             0.70887             0.74255             0.80356             2.54865             0.74659             1.23606             4.78747             1.10322             0.90171             0.64569             0.89937             0.60338             4.36451             0.54871             1.74575             0.54825             0.67941             0.79344             1.74641             1.71900             1.26994            13.33088             0.78149             2.10496             0.65661             0.77258             2.26139             1.59242             1.83644             1.28029             1.65861             2.29963             1.32479             2.41886             0.72507             8.60082             3.09705             0.80595             2.02927            46.21358             2.07610             1.14972             1.00993             1.38444             0.96207             5.41137             2.65589             0.72906             0.93265             1.10141             1.84806             0.64489             1.38232             0.55708             0.65984             1.18317             0.74670             0.72113             0.66441             4.49965             2.54820             0.67648             0.73442             0.81178             0.70786             1.32391             1.45720             0.64773             2.45357             1.30760             0.69616             2.01490             0.78480             1.22117             0.63507             2.44913             4.34045             1.29516             1.13671             0.87799             1.78394            34.86099             2.26784             0.86570             3.47134             4.38096             1.76286             0.67490             4.66446             0.58228             1.42276             0.63546             1.24429             0.67318             0.77830             1.20560             0.99546             1.64083             2.01217             0.55017             1.37844             0.63519             4.85648             5.88934             0.64370             1.08618             0.73822             0.54487             2.47056             0.90502             0.64902             1.06681             0.68635             2.34791             1.94367             0.78060             1.69874             1.34687            19.26512             0.79769             2.15924             0.60569             1.41560             0.76356             5.03331             0.64612             1.30040             0.66567             1.12906             0.65060             0.71879             0.62146             1.95182             2.34814             1.84090             0.63166             3.14384             1.50497             0.94475             1.55516             0.65221             0.83289             0.68620             2.41733             1.13332             0.92315             0.66285             0.86101             2.01865             0.74356             0.86043             2.57193             0.79455            14.79881             2.74689             1.59422             2.19626             2.00438             1.04952             1.32089             1.17352             0.64996             0.63934             0.73752             2.10667             0.68587             2.39050             8.51108             2.30895             3.65234             0.78901             0.82696             0.65135             1.70480             1.38476             0.67035             1.54411             1.85878             0.77291             0.83608             0.75967             0.63828             2.68786             0.72793             0.55511             1.78558             2.22186             0.87591            21.33771             2.02845             1.35919             0.64246             1.61798             2.35128             1.17713             0.69873             0.70659             0.95498             0.73283             2.65576             0.78775            15.34938             3.29690             0.73901             0.69952             0.67307             6.51343             1.08660            34.50538             2.19575            26.70458             4.05587             2.61200             0.79575             4.37321             3.77767             0.62697             2.26089             0.74741             0.65633             0.68070             2.12544             5.85138            41.53532             1.07738             0.77396             1.44206             0.72317             1.76647             1.01677            12.15614             5.07400             2.11079            14.40927             1.10992             1.03511             1.42975             2.21742             1.32427             0.77595             1.89336             3.33341             2.86790             2.30385             0.53737             1.29639             1.37443             0.64852             2.54024             0.57018             0.64614             0.65411             2.35094             0.56369             6.80376             0.61694             0.64808             0.92505             1.14946            25.12427             9.94496             2.58367             1.52939             1.71280             0.57399             1.03690             0.80034             3.00130             1.66450             0.59343             3.70871             2.49009             1.17266             4.45394             0.65398             0.87926             2.71305             0.65998             0.79020             4.01429            30.66615             1.44421             1.65022             0.78151             1.07513             0.64765            54.72801             1.25892             6.09383             2.46338             0.72281             2.00055             0.81052             1.07850             0.63820             1.84062             0.74593            30.38388             0.97983            24.43168            26.49373             0.75396             0.65431             0.86155             4.00501             3.64602             2.01306             3.46675             0.60987             0.71874             2.31541             1.24682             0.70438             0.82761             0.64696             8.09608             0.85111             1.01708             0.55073             0.97936             0.58779             0.69220             2.90801            50.19793             5.70108             1.21552             0.61320             0.72080             0.77799             0.64972             1.56010             1.64314            36.98770             0.87039             2.02484             1.77300             1.37600             0.67181             4.61499             0.58167             0.78560            37.96553             2.18855             1.27429             0.80928            50.95702             1.03022             1.81204             0.60631             0.89406             1.08125             4.80192             5.79455            12.90819             0.79850             1.40745             0.71811             4.08933             0.73300             3.00572             0.60540             1.14743             0.64802             0.74359             0.93939             1.67858             0.67388             0.84716             0.61389             2.40108             2.80170             0.64241             0.75966             1.46080             2.07922             1.08955             0.77019             0.64584             0.65428             1.07016             0.81389             0.76387             0.64347             1.91306             0.76842             1.09220             0.72492             1.54914             0.65588             0.94884             4.61063             1.65022             0.79488             0.83933            14.19157             2.39829             1.46512             0.78781             1.16747             0.70242             0.64367             1.83104             0.84936             1.44441             0.54315            12.29441             0.63601             2.87997             0.81163             0.72033             3.76080             1.56479             0.64217             0.54206             1.53966             1.11338             0.88964             0.83229             2.02420             0.65039            15.97251             0.53802             2.54432             1.36647             0.71663             0.78607             3.07449             1.67599             1.95136             2.25964             0.64583             0.80523             0.80897             2.55636             0.65723            41.24911            29.15591             0.69310             0.63514             3.88428             2.57749             4.97826             0.68629             0.63428             1.16458             4.93830             7.86689             1.96737             0.98551             1.18248             1.32610             2.36859             1.89840             0.76852             0.83509             0.74311             0.73908             2.98229             0.66045             2.13961             1.97272             1.07146             0.61537             0.81114             0.68242             0.79864             1.32121             1.17398             0.68699             2.26465             2.04816             0.92965             1.61968             0.64591             0.74914             0.82944             2.54636             1.24274             0.83566             2.88552             0.80676             0.90030             2.16810             1.69642             0.63968             0.83380             1.37814             0.65024             0.65720             8.11312             1.09024             1.00599             1.81439             1.03883             1.75278             0.78130             0.67147             1.90900             0.74606             0.77553             3.67301             1.79864             2.02167             0.58985             9.97843             1.05350             0.88293             1.17295             1.37737             0.77273             1.78835             1.71009            24.41083             0.65615             0.89397             0.87102             0.88286             0.68707             0.84356             1.17893             1.07452             0.67351             1.12421             0.63937             0.65315            17.32780             1.56144             0.66698             1.548