# vtk DataFile Version 3.0
Output from R2
ASCII
DATASET UNSTRUCTURED_GRID
POINTS       7930 double
    -4.84000     0.00000   0.
     0.00000     0.00000   0.
     1.00000    -0.02000   0.
     2.00000     0.06000   0.
     2.99000     0.18000   0.
     3.98000     0.34000   0.
     4.96000     0.50000   0.
     5.95000     0.66000   0.
     6.94000     0.82000   0.
     7.93000     0.98000   0.
     8.92000     1.11000   0.
     9.89000     1.34000   0.
    10.88000     1.51000   0.
    11.86000     1.68000   0.
    12.84000     1.91000   0.
    13.82000     2.07000   0.
    14.80000     2.27000   0.
    15.78000     2.47000   0.
    16.77000     2.61000   0.
    17.76000     2.77000   0.
    18.73000     3.02000   0.
    19.72000     3.12000   0.
    20.70000     3.32000   0.
    21.69000     3.51000   0.
    22.67000     3.66000   0.
    23.67000     3.76000   0.
    24.64000     3.99000   0.
    25.64000     4.07000   0.
    26.59000     4.39000   0.
    27.55000     4.65000   0.
    28.53000     4.88000   0.
    29.52000     4.98000   0.
    30.48000     5.26000   0.
    31.47000     5.43000   0.
    32.46000     5.58000   0.
    33.44000     5.75000   0.
    34.42000     5.93000   0.
    35.39000     6.20000   0.
    36.38000     6.32000   0.
    37.34000     6.58000   0.
    38.33000     6.75000   0.
    39.29000     7.04000   0.
    40.26000     7.25000   0.
    41.23000     7.51000   0.
    42.20000     7.74000   0.
    43.16000     8.05000   0.
    44.10000     8.37000   0.
    45.05000     8.70000   0.
    46.04000     8.78000   0.
    47.02000     8.98000   0.
    48.00000     9.17000   0.
    48.93000     9.56000   0.
    49.90000     9.80000   0.
    50.89000     9.88000   0.
    51.82000    10.26000   0.
    52.76000    10.59000   0.
    53.73000    10.85000   0.
    54.61000    11.32000   0.
    55.50000    11.78000   0.
    56.42000    12.18000   0.
    57.30000    12.65000   0.
    58.19000    13.11000   0.
    59.17000    13.29000   0.
    60.17000    13.35000   0.
    60.97000    13.94000   0.
    65.81000    13.94000   0.
    -4.84000   -27.11000   0.
     0.00000   -27.11000   0.
     1.00000   -27.12000   0.
     2.00000   -27.05000   0.
     2.99000   -26.93000   0.
     3.98000   -26.77000   0.
     4.96000   -26.61000   0.
     5.95000   -26.45000   0.
     6.94000   -26.29000   0.
     7.93000   -26.13000   0.
     8.92000   -26.00000   0.
     9.89000   -25.77000   0.
    10.88000   -25.60000   0.
    11.86000   -25.43000   0.
    12.84000   -25.20000   0.
    13.82000   -25.04000   0.
    14.80000   -24.84000   0.
    15.78000   -24.64000   0.
    16.77000   -24.50000   0.
    17.76000   -24.33000   0.
    18.73000   -24.09000   0.
    19.72000   -23.98000   0.
    20.70000   -23.79000   0.
    21.69000   -23.60000   0.
    22.67000   -23.45000   0.
    23.67000   -23.34000   0.
    24.64000   -23.12000   0.
    25.64000   -23.04000   0.
    26.59000   -22.72000   0.
    27.55000   -22.46000   0.
    28.53000   -22.23000   0.
    29.52000   -22.12000   0.
    30.48000   -21.85000   0.
    31.47000   -21.68000   0.
    32.46000   -21.53000   0.
    33.44000   -21.36000   0.
    34.42000   -21.18000   0.
    35.39000   -20.91000   0.
    36.38000   -20.78000   0.
    37.34000   -20.52000   0.
    38.33000   -20.36000   0.
    39.29000   -20.07000   0.
    40.26000   -19.85000   0.
    41.23000   -19.59000   0.
    42.20000   -19.37000   0.
    43.16000   -19.06000   0.
    44.10000   -18.74000   0.
    45.05000   -18.41000   0.
    46.04000   -18.33000   0.
    47.02000   -18.13000   0.
    48.00000   -17.93000   0.
    48.93000   -17.55000   0.
    49.90000   -17.31000   0.
    50.89000   -17.23000   0.
    51.82000   -16.85000   0.
    52.76000   -16.52000   0.
    53.73000   -16.26000   0.
    54.61000   -15.78000   0.
    55.50000   -15.33000   0.
    56.42000   -14.93000   0.
    57.30000   -14.46000   0.
    58.19000   -14.00000   0.
    59.17000   -13.82000   0.
    60.17000   -13.76000   0.
    60.97000   -13.16000   0.
    65.81000   -13.16000   0.
  -309.70000     0.00000   0.
  -309.70000  -210.03000   0.
   370.67000    13.94000   0.
   370.67000  -210.03000   0.
    -4.40000     0.00000   0.
    -3.96000     0.00000   0.
    -3.52000     0.00000   0.
    -3.08000     0.00000   0.
    -2.64000     0.00000   0.
    -2.20000     0.00000   0.
    -1.76000     0.00000   0.
    -1.32000     0.00000   0.
    -0.88000     0.00000   0.
    -0.44000     0.00000   0.
     0.33300    -0.00700   0.
     0.66700    -0.01300   0.
     1.33300     0.00700   0.
     1.66700     0.03300   0.
     2.33000     0.10000   0.
     2.66000     0.14000   0.
     3.32000     0.23300   0.
     3.65000     0.28700   0.
     4.30700     0.39300   0.
     4.63300     0.44700   0.
     5.29000     0.55300   0.
     5.62000     0.60700   0.
     6.28000     0.71300   0.
     6.61000     0.76700   0.
     7.27000     0.87300   0.
     7.60000     0.92700   0.
     8.26000     1.02300   0.
     8.59000     1.06700   0.
     9.24300     1.18700   0.
     9.56700     1.26300   0.
    10.22000     1.39700   0.
    10.55000     1.45300   0.
    11.20700     1.56700   0.
    11.53300     1.62300   0.
    12.18700     1.75700   0.
    12.51300     1.83300   0.
    13.16700     1.96300   0.
    13.49300     2.01700   0.
    14.14700     2.13700   0.
    14.47300     2.20300   0.
    15.12700     2.33700   0.
    15.45300     2.40300   0.
    16.11000     2.51700   0.
    16.44000     2.56300   0.
    17.10000     2.66300   0.
    17.43000     2.71700   0.
    18.08300     2.85300   0.
    18.40700     2.93700   0.
    19.06000     3.05300   0.
    19.39000     3.08700   0.
    20.04700     3.18700   0.
    20.37300     3.25300   0.
    21.03000     3.38300   0.
    21.36000     3.44700   0.
    22.01700     3.56000   0.
    22.34300     3.61000   0.
    23.00300     3.69300   0.
    23.33700     3.72700   0.
    23.99300     3.83700   0.
    24.31700     3.91300   0.
    24.97300     4.01700   0.
    25.30700     4.04300   0.
    25.95700     4.17700   0.
    26.27300     4.28300   0.
    26.91000     4.47700   0.
    27.23000     4.56300   0.
    27.87700     4.72700   0.
    28.20300     4.80300   0.
    28.86000     4.91300   0.
    29.19000     4.94700   0.
    29.84000     5.07300   0.
    30.16000     5.16700   0.
    30.81000     5.31700   0.
    31.14000     5.37300   0.
    31.80000     5.48000   0.
    32.13000     5.53000   0.
    32.78700     5.63700   0.
    33.11300     5.69300   0.
    33.76700     5.81000   0.
    34.09300     5.87000   0.
    34.74300     6.02000   0.
    35.06700     6.11000   0.
    35.72000     6.24000   0.
    36.05000     6.28000   0.
    36.70000     6.40700   0.
    37.02000     6.49300   0.
    37.67000     6.63700   0.
    38.00000     6.69300   0.
    38.65000     6.84700   0.
    38.97000     6.94300   0.
    39.61300     7.11000   0.
    39.93700     7.18000   0.
    40.58300     7.33700   0.
    40.90700     7.42300   0.
    41.55300     7.58700   0.
    41.87700     7.66300   0.
    42.52000     7.84300   0.
    42.84000     7.94700   0.
    43.47300     8.15700   0.
    43.78700     8.26300   0.
    44.41700     8.48000   0.
    44.73300     8.59000   0.
    45.38000     8.72700   0.
    45.71000     8.75300   0.
    46.36700     8.84700   0.
    46.69300     8.91300   0.
    47.34700     9.04300   0.
    47.67300     9.10700   0.
    48.31000     9.30000   0.
    48.62000     9.43000   0.
    49.25300     9.64000   0.
    49.57700     9.72000   0.
    50.23000     9.82700   0.
    50.56000     9.85300   0.
    51.20000    10.00700   0.
    51.51000    10.13300   0.
    52.13300    10.37000   0.
    52.44700    10.48000   0.
    53.08300    10.67700   0.
    53.40700    10.76300   0.
    54.02300    11.00700   0.
    54.31700    11.16300   0.
    54.90700    11.47300   0.
    55.20300    11.62700   0.
    55.80700    11.91300   0.
    56.11300    12.04700   0.
    56.71300    12.33700   0.
    57.00700    12.49300   0.
    57.59700    12.80300   0.
    57.89300    12.95700   0.
    58.51700    13.17000   0.
    58.84300    13.23000   0.
    59.50300    13.31000   0.
    59.83700    13.33000   0.
    60.43700    13.54700   0.
    60.70300    13.74300   0.
    61.41000    13.94000   0.
    61.85000    13.94000   0.
    62.29000    13.94000   0.
    62.73000    13.94000   0.
    63.17000    13.94000   0.
    63.61000    13.94000   0.
    64.05000    13.94000   0.
    64.49000    13.94000   0.
    64.93000    13.94000   0.
    65.37000    13.94000   0.
    -3.22700   -27.11000   0.
    -1.61300   -27.11000   0.
    62.58300   -13.16000   0.
    64.19700   -13.16000   0.
    -4.84000    -0.44200   0.
    -4.84000    -0.90700   0.
    -4.84000    -1.39300   0.
    -4.84000    -1.90400   0.
    -4.84000    -2.44000   0.
    -4.84000    -3.00200   0.
    -4.84000    -3.59100   0.
    -4.84000    -4.21000   0.
    -4.84000    -4.85800   0.
    -4.84000    -5.53900   0.
    -4.84000    -6.25200   0.
    -4.84000    -7.00100   0.
    -4.84000    -7.78600   0.
    -4.84000    -8.61000   0.
    -4.84000    -9.47400   0.
    -4.84000   -10.38000   0.
    -4.84000   -11.33100   0.
    -4.84000   -12.32800   0.
    -4.84000   -13.37400   0.
    -4.84000   -14.47200   0.
    -4.84000   -15.62300   0.
    -4.84000   -16.83000   0.
    -4.84000   -18.09700   0.
    -4.84000   -19.42500   0.
    -4.84000   -20.81900   0.
    -4.84000   -22.28100   0.
    -4.84000   -23.81400   0.
    -4.84000   -25.42300   0.
    65.81000    13.49800   0.
    65.81000    13.03400   0.
    65.81000    12.54700   0.
    65.81000    12.03700   0.
    65.81000    11.50100   0.
[...]
POINT_DATA      7930
CELL_DATA     15554
SCALARS Resistivity(Ohm-m) double 1
LOOKUP_TABLE default
             0.32794             0.45587             0.30532             0.24705             5.18675             3.38930             0.26025             0.27541             1.45187             8.76323             0.21759             0.41561             1.12708             0.24705             6.48229             0.56953             1.70168             0.21881             0.30893             1.02512             0.84407             2.63781             1.69825             9.31471             4.54278             0.49733             8.07586             0.93275             2.99684             0.33512             7.18816             0.22785             6.08803             0.28372             0.29312             4.84988             0.44805             0.62884             3.24090             0.48935             0.34851             8.71972             0.29183             0.21689             0.72491             0.56045             2.12628             0.75162             0.24274             6.76673             9.44161             0.88400             1.32364             0.82609             7.14677             0.36991             0.31187             1.07317             8.64152             0.52161             0.76587             0.76221             0.56972             1.30809             6.38670             2.87431             1.01846             0.26471             0.31002             0.29895             9.32359             0.44194             0.35306             0.89784             0.41270             0.39766             0.74575             7.01830             0.79316             6.97006             1.52147             0.21423             0.27031             0.43630             0.83701             9.41343             1.48279             0.87886             0.27985             0.29440             0.55799             1.81926             5.09540             0.34958             1.01558             7.23370             0.30027             0.46297             0.82471             0.24001             7.86800             0.71347             0.37210             1.04729             5.67628             0.22821             4.65674             0.22285             0.22476             0.92106             1.37855             0.28397             0.27210             1.77248             0.35178             0.60972             0.21508             1.80928             6.69680             0.71840            15.71572             0.45597             0.30139             7.22626            13.15276             0.73218             0.23154             0.54577             0.26772             1.79862             4.07403             1.58016             0.67446             0.86386             0.27116             0.73143             2.26610             0.28299             0.78101             2.92174             0.96264             2.23849             0.27554             0.22365             0.26043             5.28967             4.76005             0.93972             0.40086             9.04090             0.45450             2.25620             0.43190             0.25018             0.62300             0.38677             2.93807             2.49318             0.60943             0.21705             0.45550             6.74202             1.33340             4.92355             0.80999             0.31228             0.28798             8.34513             0.21748             0.25178             0.23466             0.29062             0.44817             0.21490             0.21642             0.25545             1.02725             0.29028             0.70286             6.28753             0.29681             0.45627             0.21375             0.52368             1.18367             1.14598             3.44766             0.27394             0.47005             9.56953             0.77208             3.12702             0.46646             0.88190             0.42325             1.52807             0.37974             7.58505             1.51168             0.26603             0.66320             0.91356             0.59196             0.81597             1.96408             0.63805             7.05388             0.36219             0.28582             4.95790             0.22477             1.01050             1.59638             0.26118             0.46361             0.26833            10.36334             0.68549             0.61467             0.47703             0.60253             0.33737             6.97981             0.27757             0.67322             8.30003             1.46208             0.43107             0.25305             1.00826             0.52444             0.32892             0.23737             0.21475             0.46517             0.24296             0.25795             1.09566             1.41928             0.21703             0.73660             0.28831             4.94080             0.86447             0.76336             0.40084             1.26857             0.70047             0.52383             0.25204             0.42741             0.22152             0.24004             0.25484             1.32560             0.21647             1.19162             0.92319             0.90974             0.22973            14.67032             0.78285            11.95503             0.82031             2.19506            14.51414             0.46435             0.68618             0.22981             0.27099             0.68276            11.85803             0.48487             0.21735             0.83780             0.47761             0.21489             0.63890             0.26339             0.98716             0.48849             1.28089             0.42168             0.45783             4.99307             0.37046             0.46645             0.43552             0.34561             0.45246             0.51124             0.67355             0.44659             0.50307             0.57423             3.18922             1.26179             0.27510             0.26774             0.37092             0.81078             0.31995             0.47772             1.41153             0.41991             0.31999             0.65924             0.30158             0.63646             0.77452             1.35295             0.34003             0.21568             6.01552             0.22517             0.91118             0.61477             0.99366             0.54367             0.55867             0.31030             0.37873             0.28743             0.52062             0.95269             2.44450             0.27420             0.21755             1.31607             0.44157             0.21545             1.27789             0.28575             0.39215             0.29217             0.44295             0.46768            10.27135             2.36577             5.24570             4.13761             0.21572             0.50472             1.71657             0.29122             3.61196             0.44216             0.52221             3.50567             1.04306             8.14502             0.57783             0.44464             6.38777             0.47980             0.26459             4.37583             0.46778             0.33330             0.32814             0.29297             3.08433             3.07324             0.25300             0.36874             0.31744             0.77772             0.87549             0.23917             0.29085             0.72022             0.87763             0.49030             4.87477             1.25202             0.61950             0.63239             0.22796             0.55033             1.51446             0.32792             0.21574             0.21857             0.29705             0.54250             0.22409            13.87911             1.07063             1.00610             3.29807            11.48961             0.26628             0.67878             1.64862             1.97726             0.27239             0.45627             1.25542             0.29312             0.49100             0.74332             0.86704             1.14865             0.56309             0.31616             0.38922             0.27314             0.22004             0.49884             1.84391             7.30953             3.09296             0.24801             4.78812             0.36712             1.63291             0.77999             5.51852             0.42515             0.53089             0.40474             0.55787             1.90703             0.39279             0.33811             0.61560             3.87961             0.77748             0.82840             1.18440             0.21520             3.14475             0.62456             0.40794             7.64424             0.26519             0.29528             0.22163             1.36669             6.36221             0.21872             0.41462             0.38754             4.53488             0.25325             5.49190             0.28453             0.24350             4.30981             0.59770             3.46750             0.27661             2.52310             0.28078             0.23630             0.77510             9.68452             0.38400             0.42351             0.95932             0.26836             2.29614             7.75305             0.53846             0.93193            13.79231             0.68514             0.35497             0.75535             4.39386             0.44130             1.40185            11.12295             0.40500             0.64838             0.26275             0.27545             0.67627             3.14961             1.01095             0.41060             0.73052             0.60257             0.42950             0.30291             0.38129             0.46345             7.33726             0.42049             2.81165             0.22525             0.40936             0.28329             0.29508             2.62261             0.26318             0.27811             2.30665             0.36566             0.30053             0.27761             5.28583             5.49166             0.44429             1.51248            15.65512             1.23171             1.29435             0.25101             0.37770             0.72564            12.96772             1.96308             0.40026             1.08921             0.26433             1.94367             0.21820             1.54375             0.72260             0.22432             1.11346             0.33093             0.23516             0.50808             2.66921             2.09952             0.24801             0.36908             0.80107             0.77655             0.44140             0.42486             0.21622             0.29045             1.42566             0.27199             0.28766             0.25885             0.54821             0.89274             3.49461             2.90090             0.54336             0.25387             0.52545             1.69652            12.55689             0.28728             0.50151             3.07854             9.94315             0.51642             0.43789             3.79755             0.80867             1.52413             0.67178             0.28483             0.73960             0.38040             0.75149             0.59193             0.92208             1.09345             0.88124             0.87098             0.40649             3.12793             4.28958             0.22006             0.95364             0.23190             0.77298             0.28840             0.52429             0.41847             0.47754             0.31268             2.23781             1.30676             0.84637             0.46700             0.28392             8.52264             0.43207             1.64194             0.49207             1.90784             0.39810             3.13040             0.21709             0.90976             0.23223             0.53925             0.22119             0.34859             0.51608             0.29141             2.64581             2.02485             0.99595             6.35446             0.94622             0.70971             1.53764             0.21528             0.28380             0.23232             0.74529             0.65984             0.53657             0.98384             0.48839             0.35438             0.55610             0.59597             0.29965             0.42855             7.02229             2.13727             1.70213             0.28192             0.27885             0.33245             0.41361             0.41369             0.21848             0.23143             0.23457             0.33605             0.86995             0.28772             4.47837             0.32060             3.32719             0.30205             0.46153             0.21449             1.37352             0.31210             0.22800             1.70693             2.76534             0.86100             0.51833             0.29986             0.49285             4.96716             0.35672             0.74063             1.90465             0.28317             0.55447             9.08454             0.87506             1.47662             0.27169             0.27221             1.85049             0.32359             0.91698             0.33181             0.58087             1.01916             1.69792             0.42754             6.97341             6.85526             0.62773             0.23427             0.30054             4.46816             0.50579            12.55038             0.32690            11.30870             9.23794             4.89196             0.84729             9.98713             2.56970             0.34913             1.72835             0.31701             0.22520             0.25357             0.33758             4.46147            14.65669             0.42630             0.40799             0.99184             0.25610             1.15271             0.24810             6.34768            12.17869             0.29517             7.90162             0.42865             0.80634             0.28393             0.29332             0.37154             0.69649             0.80714             6.10248             2.62635             2.78644             1.00636             1.17064             0.34937             0.21795             2.83108             0.71928             0.21447             0.22346             0.29403             1.01358             4.02180             0.78312             0.48598             0.53849             1.22162            10.37327             5.66521             4.39681             0.33925             0.56137             0.89598             1.01686             0.38796             1.88096             0.34188             0.79359             8.11686             2.91127             0.56812             3.03870             0.21956             0.50782             1.50594             0.22780             0.43018             8.93089            11.44883             1.31249             1.67709             0.40626             0.29217             0.59200            17.55209             1.71220            14.53706             3.80747             0.23514             1.30033             0.54863             0.91920             0.21784             2.38733             0.28543            11.42683             0.59061             9.74823            10.31467             0.39556             0.23684             0.48863             8.93976             7.90123             0.34116             7.38936             0.78675             0.23179             0.63664             0.76742             0.28112             0.46178             0.21440             5.62706             1.06220             1.32569             0.73123             0.32975             0.70060             0.95245             3.94814            16.43330            13.51115             0.29831             0.82774             0.24661             0.88298             0.21352             0.44374             1.62765            13.28998             0.30407             0.45195             0.35001             1.05455             0.26957            10.73152             0.75723             0.25919            13.89683             0.30006             0.43702             0.24840            16.79290             0.61882             0.32623             0.98702             0.32828             0.58403            11.49220            13.94807             6.20975             0.79938             0.26614             0.29791             2.93321             0.49798             2.13961             0.61829             0.58771             0.26037             0.66243             0.24421             0.68183             0.35007             0.50151             0.71619             4.22764             2.49962             0.44625             0.39258             1.20465             0.30805             0.55064             0.24736             0.27727             0.22346             0.25169             0.45025             0.39718             0.21455             1.23257             0.40270             0.66542             0.23124             0.39363             0.89289             0.58287             3.58544             0.41010             0.43526             0.47135             6.69391             0.29026             0.27514             0.42723             1.58548             0.40443             0.21914             0.29885             0.47865             1.99176             0.86258             7.05524             0.22029             1.82562             0.42929             0.35580             2.49013             1.68037             0.24333             0.87149             0.98229             0.34323             0.55041             0.25758             0.27840             0.21408             7.71597             1.00569             0.79474             0.89862             0.29346             1.02854             5.24205             1.54016             0.30433             0.57804             0.21925             0.44044             0.65289             4.65653             0.22487            14.22860            11.05565             1.02335             0.22223             8.58253             1.66971             3.29902             0.49446             0.21984             0.55777            11.50222             5.17925             0.28577             1.12659             0.89871             1.02751             0.28561             1.20623             0.40415             0.73576             0.37482             0.29206             5.66663             0.22936             2.04404             0.28194             0.88363             0.65723             0.44857             0.25466             0.43850             0.49641             0.28165             0.22835             1.92139             1.43013             1.18911             1.03728             0.21412             0.38074             0.45469             3.43609             0.28740             0.31583             1.80951             0.49039             0.66805             0.28562             0.28766             0.21946             0.47391             0.26275             0.21379             0.22507             4.29779             1.14901             0.43919             0.37003             0.78649             0.27726             0.41992             0.24275             0.39858             0.24330             0.41192             2.23990             2.62210             0.29544             0.98720             5.21411             0.87654             0.73682             0.80587             1.27332             0.41557             0.67287             1.82221             9.99653             0.27110             1.02524             0.25875             0.50529             0.30930             0.47483             1.14602             0.65406             0.40614             0.47813             0.21577             0.69446             7.90001             0.41102             0.57304             0.280