# vtk DataFile Version 3.0
Output from R2
ASCII
DATASET UNSTRUCTURED_GRID
POINTS       5441 double
     0.00000     0.00000   0.
     1.00000    -0.02000   0.
     2.00000     0.06000   0.
     2.99000     0.18000   0.
     3.98000     0.34000   0.
     4.96000     0.50000   0.
     5.95000     0.66000   0.
     6.94000     0.82000   0.
     7.93000     0.98000   0.
     8.92000     1.11000   0.
     9.89000     1.34000   0.
    10.88000     1.51000   0.
    11.86000     1.68000   0.
    12.84000     1.91000   0.
    13.82000     2.07000   0.
    14.80000     2.27000   0.
    15.78000     2.47000   0.
    16.77000     2.61000   0.
    17.76000     2.77000   0.
    18.73000     3.02000   0.
    19.72000     3.12000   0.
    20.70000     3.32000   0.
    21.69000     3.51000   0.
    22.67000     3.66000   0.
    23.67000     3.76000   0.
    24.64000     3.99000   0.
    25.64000     4.07000   0.
    26.59000     4.39000   0.
    27.55000     4.65000   0.
    28.53000     4.88000   0.
    29.52000     4.98000   0.
    30.48000     5.26000   0.
    31.47000     5.43000   0.
    32.46000     5.58000   0.
    33.44000     5.75000   0.
    34.42000     5.93000   0.
    35.39000     6.20000   0.
    36.38000     6.32000   0.
    37.34000     6.58000   0.
    38.33000     6.75000   0.
    39.29000     7.04000   0.
    40.26000     7.25000   0.
    41.23000     7.51000   0.
    42.20000     7.74000   0.
    43.16000     8.05000   0.
    44.10000     8.37000   0.
    45.05000     8.70000   0.
    46.04000     8.78000   0.
    47.02000     8.98000   0.
    48.00000     9.17000   0.
    48.93000     9.56000   0.
    49.90000     9.80000   0.
    50.89000     9.88000   0.
    51.82000    10.26000   0.
    52.76000    10.59000   0.
    53.73000    10.85000   0.
    54.61000    11.32000   0.
    55.50000    11.78000   0.
    56.42000    12.18000   0.
    57.30000    12.65000   0.
    58.19000    13.11000   0.
    59.17000    13.29000   0.
    60.17000    13.35000   0.
    60.97000    13.94000   0.
    60.17000   -13.76000   0.
    60.97000   -13.16000   0.
     0.33300    -0.00700   0.
     0.66700    -0.01300   0.
     1.33300     0.00700   0.
     1.66700     0.03300   0.
     2.33000     0.10000   0.
     2.66000     0.14000   0.
     3.32000     0.23300   0.
     3.65000     0.28700   0.
     4.30700     0.39300   0.
     4.63300     0.44700   0.
     5.29000     0.55300   0.
     5.62000     0.60700   0.
     6.28000     0.71300   0.
     6.61000     0.76700   0.
     7.27000     0.87300   0.
     7.60000     0.92700   0.
     8.26000     1.02300   0.
     8.59000     1.06700   0.
     9.24300     1.18700   0.
     9.56700     1.26300   0.
    10.22000     1.39700   0.
    10.55000     1.45300   0.
    11.20700     1.56700   0.
    11.53300     1.62300   0.
    12.18700     1.75700   0.
    12.51300     1.83300   0.
    13.16700     1.96300   0.
    13.49300     2.01700   0.
    14.14700     2.13700   0.
    14.47300     2.20300   0.
    15.12700     2.33700   0.
    15.45300     2.40300   0.
    16.11000     2.51700   0.
    16.44000     2.56300   0.
    17.10000     2.66300   0.
    17.43000     2.71700   0.
    18.08300     2.85300   0.
    18.40700     2.93700   0.
    19.06000     3.05300   0.
    19.39000     3.08700   0.
    20.04700     3.18700   0.
    20.37300     3.25300   0.
    21.03000     3.38300   0.
    21.36000     3.44700   0.
    22.01700     3.56000   0.
    22.34300     3.61000   0.
    23.00300     3.69300   0.
    23.33700     3.72700   0.
    23.99300     3.83700   0.
    24.31700     3.91300   0.
    24.97300     4.01700   0.
    25.30700     4.04300   0.
    25.95700     4.17700   0.
    26.27300     4.28300   0.
    26.91000     4.47700   0.
    27.23000     4.56300   0.
    27.87700     4.72700   0.
    28.20300     4.80300   0.
    28.86000     4.91300   0.
    29.19000     4.94700   0.
    29.84000     5.07300   0.
    30.16000     5.16700   0.
    30.81000     5.31700   0.
    31.14000     5.37300   0.
    31.80000     5.48000   0.
    32.13000     5.53000   0.
    32.78700     5.63700   0.
    33.11300     5.69300   0.
    33.76700     5.81000   0.
    34.09300     5.87000   0.
    34.74300     6.02000   0.
    35.06700     6.11000   0.
    35.72000     6.24000   0.
    36.05000     6.28000   0.
    36.70000     6.40700   0.
    37.02000     6.49300   0.
    37.67000     6.63700   0.
    38.00000     6.69300   0.
    38.65000     6.84700   0.
    38.97000     6.94300   0.
    39.61300     7.11000   0.
    39.93700     7.18000   0.
    40.58300     7.33700   0.
    40.90700     7.42300   0.
    41.55300     7.58700   0.
    41.87700     7.66300   0.
    42.52000     7.84300   0.
    42.84000     7.94700   0.
    43.47300     8.15700   0.
    43.78700     8.26300   0.
    44.41700     8.48000   0.
    44.73300     8.59000   0.
    45.38000     8.72700   0.
    45.71000     8.75300   0.
    46.36700     8.84700   0.
    46.69300     8.91300   0.
    47.34700     9.04300   0.
    47.67300     9.10700   0.
    48.31000     9.30000   0.
    48.62000     9.43000   0.
    49.25300     9.64000   0.
    49.57700     9.72000   0.
    50.23000     9.82700   0.
    50.56000     9.85300   0.
    51.20000    10.00700   0.
    51.51000    10.13300   0.
    52.13300    10.37000   0.
    52.44700    10.48000   0.
    53.08300    10.67700   0.
    53.40700    10.76300   0.
    54.02300    11.00700   0.
    54.31700    11.16300   0.
    54.90700    11.47300   0.
    55.20300    11.62700   0.
    55.80700    11.91300   0.
    56.11300    12.04700   0.
    56.71300    12.33700   0.
    57.00700    12.49300   0.
    57.59700    12.80300   0.
    57.89300    12.95700   0.
    58.51700    13.17000   0.
    58.84300    13.23000   0.
    59.50300    13.31000   0.
    59.83700    13.33000   0.
    60.43700    13.54700   0.
    60.70300    13.74300   0.
    47.78000    -3.98000   0.
    30.65200    -7.37800   0.
     9.53100   -10.15100   0.
    19.07800    -7.21200   0.
    55.73600     1.38800   0.
    38.88700    -2.37800   0.
    25.65400    -2.46200   0.
    59.94000     7.58600   0.
     2.97600    -7.06900   0.
    32.08600    -1.12600   0.
    10.93900    -3.89800   0.
    49.09400     2.54600   0.
    43.29900     2.08300   0.
    15.99500    -2.75300   0.
    53.99500     6.34300   0.
    20.84600    -1.55400   0.
    38.67100   -11.15800   0.
    35.76800     1.63100   0.
     6.51500    -3.71100   0.
    28.41200     0.68300   0.
    55.34000    -6.61100   0.
    39.58300     3.04900   0.
    45.80600     4.94400   0.
     0.03800    -4.18200   0.
    14.34400    -7.29500   0.
    50.30900     6.05100   0.
    24.72300    -8.02700   0.
    45.90400   -10.95800   0.
    23.49100     0.37500   0.
    31.14200     2.39600   0.
    34.88000    -5.15100   0.
    56.59100     8.57800   0.
    13.11000    -1.35600   0.
    18.08500    -0.29000   0.
    59.50000    10.57200   0.
    42.67700    -6.52700   0.
     3.25400    -3.03800   0.
     8.83100    -1.89400   0.
    51.85100    -1.47100   0.
    42.06400     4.71100   0.
    43.14600    -2.14800   0.
    46.46900    -0.20600   0.
    29.29200    -3.89200   0.
    22.75100    -4.91600   0.
    33.65000     3.14800   0.
    16.91200   -11.14500   0.
     8.63200    -6.62500   0.
    37.18100     3.99900   0.
    57.51000     5.19500   0.
    52.39700     3.43700   0.
    15.48800    -0.25500   0.
    25.67000     1.59400   0.
    50.40900    -8.38900   0.
    47.65500     6.56400   0.
    21.02600     0.91100   0.
    35.38600    -1.78800   0.
    34.43000    -9.61200   0.
    38.71900    -6.37600   0.
    60.73000     1.32400   0.
    21.71100   -10.72800   0.
    12.91700   -12.95900   0.
    40.85000     0.15900   0.
    51.91200     7.84400   0.
    18.84500    -4.03300   0.
     5.14100   -11.06700   0.
     0.30200   -11.00300   0.
    27.84700   -10.87800   0.
    10.78800    -0.77500   0.
     5.15800    -1.81100   0.
    13.58300    -3.94200   0.
    58.09200    -2.61500   0.
    43.96700     6.10600   0.
    28.88900     2.76900   0.
    54.11600     8.67500   0.
    26.58800    -5.49700   0.
    38.32300     0.81900   0.
     1.33600    -2.12500   0.
    39.88000     5.09700   0.
    11.50900    -6.64200   0.
    16.49300    -5.45400   0.
    57.51600    10.58500   0.
    23.23100    -1.96500   0.
    45.74000     6.86700   0.
    33.55800     0.75800   0.
     7.07700    -1.07600   0.
    32.22300    -4.02500   0.
    45.88900     2.41800   0.
     5.83000    -6.50900   0.
    35.43000     4.26900   0.
    49.15700     7.63100   0.
    60.44600    -7.37000   0.
    54.26200   -10.94500   0.
    12.41600    -9.50000   0.
    46.36100    -7.26600   0.
    19.11000     1.30900   0.
    49.88700   -12.87900   0.
    28.03500    -1.75900   0.
    31.42000   -10.94000   0.
    51.24600    -4.93700   0.
     8.71800    -4.11100   0.
    22.44200     1.87400   0.
    42.26500   -10.09600   0.
    27.14400     2.81600   0.
    48.01500     4.41500   0.
    13.65900     0.34300   0.
    21.98700    -7.54600   0.
    16.84400     0.89500   0.
    30.55400     0.38600   0.
     7.13700    -8.90700   0.
    49.14700    -0.32200   0.
    43.98100     4.00200   0.
    25.37100    -0.45900   0.
    32.22200     3.87100   0.
    41.11100    -4.09200   0.
    24.13900     2.13400   0.
    16.81000    -8.01200   0.
    44.89400    -4.40800   0.
    55.55400     9.86500   0.
    54.96400     3.91500   0.
     3.38800    -1.36700   0.
    41.54000     2.83400   0.
    27.86600    -8.01500   0.
    17.87800    -2.20200   0.
    54.75000    -3.18400   0.
    51.17800     1.30400   0.
    36.92400    -3.73900   0.
    11.95500     0.17800   0.
[...]
POINT_DATA      5441
CELL_DATA     10507
SCALARS Resistivity(Ohm-m) double 1
LOOKUP_TABLE default
             5.66864            13.63124             3.65130             5.45772            13.52114             3.25527            10.05230             2.70794             2.65580             6.74500             2.85680             8.56315            25.45572             2.90142            26.57068             9.03838             4.73522            18.13086            16.37886            11.95737            17.06153             4.80778            12.35948            75.85422           275.68452            91.05349            25.41685             6.26906            15.67080            23.25278            36.59709            84.36632             0.95915           297.66447             8.05784             2.59331             4.46482           147.35889             8.02344            35.69294            10.69425           175.11146             3.52963            35.67228             4.29830            47.32330            10.10466           339.13437             9.69388            12.13291           229.99074            13.91090            24.12175            12.47150             2.41893             4.76050             9.21851             9.62607             4.76862             0.97601             8.88341             8.70494           364.45268             6.19975            10.00166            17.32371            36.55047             2.37681             7.36773           187.96659            76.83560             6.88625            13.17780           145.42405            12.52773             3.28309            10.25461            14.18022             5.74756            20.18608            12.31219            16.15187             8.56813             9.30302             5.94750             4.71077             3.08310           387.24546            12.79612            14.39184            33.64748            15.12346            52.99299             3.56376             4.40780            41.63241             2.74480             2.24085             3.03425             5.00101            50.07781             5.87884            11.46199           568.02614             7.61504             6.44948             3.41218           824.40531             4.64152           347.09625            36.11290             1.62746            21.59505            13.45205            20.53748             8.80457             3.28934            78.03431            36.00004            14.00456           160.49944             7.57664             7.87371            19.90793           122.75993            12.50814            15.08111           339.54790           539.97882            17.87611           218.42035            13.54156             6.36550            81.59003            14.69405            25.74590            11.47188            10.61572             4.36141             4.71643             3.57311            11.83627             2.49732            21.57121            17.23951             5.65015            16.04730             6.33063            12.71679            11.64829            31.48711             6.76631             4.07760             7.87291           278.09548             9.62882            10.46779             4.32184            39.27865             3.47725           550.57139            13.34162             4.14112             4.14066            17.92193             3.54100            39.96786             1.28787            19.48417             7.47546             4.46421             6.36043             7.10810           419.18501            68.84841            23.78279            61.94323             7.88308             3.60409           463.18924             5.48658             5.37890            46.94582            17.74913             9.41476            51.76193            10.77484             8.26783            16.25370             4.16111             5.62501            10.04154           247.48169            12.57414            10.72838           374.73391             4.65408           280.58836             1.83740             2.68876             8.89732            20.48188             7.33291            31.55994             6.15733            13.71526            13.50233            16.25673             6.72522            62.04221             8.00325             8.75288             6.70514           812.65809           423.58712             5.94253            36.87637             1.21828            16.76906             1.57012             6.81678            39.44731           423.34194            56.04978            12.98277            55.02146           148.23438             5.76484             9.84914           285.75270            43.43690             7.52490             6.58407             9.74801           137.62845            34.63481             2.32574             2.41566             1.00702            53.57500           480.64701            15.77104             3.63403            18.44490            28.69888             7.64141            60.19821             3.41823             2.60927            74.30484           180.54421            30.19232            33.47898             2.94233           448.08317             1.39161            11.37608             5.01152             9.57857             1.29464             2.99009             1.03355            63.24715             6.44340            24.74953            12.01049           122.17010            19.41143            39.52060           331.79930          1189.82531            79.15816            46.21897            20.72919             4.56858             8.73786            31.09701            42.24508             4.11934            62.69881            98.15567            19.19696            12.36352            11.57667             6.65291            29.71932            13.37840           252.66958             2.86627           145.96650             0.93515            51.49262            28.21573            36.61040            65.36726             9.71949           301.73814             7.45568             1.46392            37.60608            15.37107            12.36025             5.80862             3.07991             1.41994             7.70027           640.63774             5.66347             4.06348             3.62105           870.90574             6.09893             6.34081             3.56380             1.95554             4.14835            14.39569             2.79169             7.81536             3.72258           352.97339             7.82002             6.00235            27.45954             8.97136             4.91326             6.74458             5.04442             6.78179             8.35599           138.83607           375.41315             2.30751           213.06177            36.99212            17.64469            37.05877             4.05541            17.66922             3.12602            22.19043             4.65630            38.24633            42.54071            32.22845             3.78354             5.76102             6.82929             6.98260            32.24762            62.15490             4.29497             6.73126            23.77901             2.33636           387.78182            45.45135             5.15156           168.23121            11.56819            29.50809             4.30747           300.47434            50.99083            12.11606             7.65780             2.77535             3.01961            11.66464             2.25578           150.39250            26.42462             5.03521             9.66258            11.33910            16.92658             5.20430             5.54683           162.59977             6.22849            47.14467             7.58425             7.27323           288.56505            53.77330           152.41918            35.67413            45.79801             3.65942             2.14592             4.83564            16.74725            10.78401             5.89028             6.10374            21.01716             1.18046             7.57583           178.58336             6.64211             9.61885             1.94480             5.00185             6.90075           137.66906             4.26008            18.98393            10.08600             1.32437             4.79337            12.80419             5.02589            13.71528            25.91336             1.02758            24.23711             4.94253            13.78192            39.30387           194.21149            25.02663           254.31020             2.40220             6.99337             5.89330            57.68339             3.02446             4.00368           909.19461             8.13125            16.99948           192.02221            27.30624             7.26406            25.81918            30.71815             8.25734             2.86173            20.30466            16.78169            56.97690             5.32877            20.05622             5.44803             5.35656           145.05240           736.84045            27.11570             4.71582             7.90128             4.64436            22.39917             3.22310           406.14960             5.73506            31.55654             6.86628            15.42899           144.74758             3.11090             2.99625            41.56019           737.94433             3.47080            84.83218            44.45512             8.76695            12.30290            46.30156           127.14268            28.05195             3.81894             7.69960             7.44487             6.38526           308.68362             5.45195             8.20856             2.76244           418.50825            18.73696            34.88005           331.28229             1.47387            50.64381            15.23259             5.93090            38.50954             2.45800            23.67636            20.19853            59.83415            14.12103             3.85041            15.64793             6.77375            32.43679            13.24941             6.24253           735.26779           368.49919            96.57031            69.86328             7.26241           399.11469             2.04839            15.27720            13.67403            18.12723            15.78355            10.26083            79.33229             5.85857             5.88423             6.85748             8.19476            26.54972            28.99454            15.42828            81.19055             4.98497             7.26154           145.33715            15.83337             5.10121           253.78223             2.86830             1.69133            17.35652             6.14484            14.81586            18.33316             6.17747           143.50130             4.70522             5.12212             4.26547             5.30312             4.36301           192.98701             4.84364            72.00125             4.90594            13.75600            85.79461           211.50231            85.39378             4.81971            13.63719            11.29352             2.23100             6.85074             2.24615             9.83509             9.88492            14.12525             5.32353            23.66007            31.73925            70.95915           258.02477            30.17084             7.82800             6.05516           350.52820             4.16042             8.61863            31.56682           403.67485             9.54674             3.77446             8.63436            42.94492            51.70743           283.93587             2.76668             4.58861            32.51397             4.64343             4.34957             6.56846             8.09443            59.77677           144.60380             9.17599           323.55661            24.98961            38.72882            20.78038             1.48920             9.20906             7.73939             4.65714            18.40235            58.13473             5.23914             9.23796             5.96242            20.88223            13.32598             2.13534             4.36668             4.93826             0.89386             2.49868             6.67987           667.54882             5.24654            27.34852             4.25741             2.24590             2.72587          1076.77560             7.12178             4.80013             4.99726            21.51342           185.15304             5.14117             2.33547             7.72035           238.64001             3.64976            11.09025            36.61939            12.02369            32.93730            40.55061            29.87599            40.62238             3.80947            12.05034             7.87241             6.21267             3.46487            78.17794            40.85501             8.40683             5.84662             1.87522           284.50773           932.00318             8.48486            17.43717            16.81667             7.71468             6.18356            21.62135            35.56233            42.43025            25.32774            19.37353            11.03133             4.02459             1.72781             9.03103             2.01730             6.97845            34.89453            24.08643             0.82547             4.26992             1.90949            10.55226           181.58208             4.56240             0.83157            22.90540             3.09039            10.93293             1.72377            37.38081            13.12327             9.94535             6.92661           209.98213             4.94590             6.06029             7.12680             8.08807           136.74763            47.13700           259.24072            40.97020             2.01913             7.52825           430.92046           742.18608            11.23248             3.72349             8.90681             3.17793             3.13687            65.01416           800.69917            67.98122             4.95995            72.39860             4.59599             1.54982           744.86378            17.44964          1083.98785            17.98694             6.10669            12.52998             5.48580            23.92195             1.47283            27.09389            25.20594             7.92344            12.19381             9.33150             9.08102            12.26386            12.78164            68.35986             3.92998            76.28935            34.11018            60.81426             5.06110             1.91378             9.70144           851.96908           241.16008             0.98764            22.88625             5.81059            10.92487            34.01856             6.40555            11.56123            24.41377            17.93846             4.81671           842.18557           392.37001            46.31367             2.35426             4.61543             3.77664            15.80399            15.64836             4.51919            37.05931            12.02950             6.39540            67.19114             9.98130           118.12244            27.67309             8.21635             5.25047            64.35367             4.09598           291.44837             7.09603             2.04154            28.46008             6.22241             7.53987            69.36028             3.58008             4.01993             9.55689            25.57661            14.90332             2.07582            12.46746             8.66237            12.02519             3.85209             7.76028           682.87995            13.54114            16.78151           187.90904             6.02255             2.14556            54.93079            15.58486             2.59380             4.12400            11.89203             6.80676            12.04501             2.40276            48.44565           145.28341             3.40965             7.37861            17.88861             5.34697            11.61515           710.81911             7.83476             6.95643            37.03118             6.64643            11.10414            11.61937             4.88279            26.74577             2.26301             3.47642             6.47837            54.73263             4.16730           345.82128            14.31233             5.52796             2.21648            34.86597             2.01909             7.19170            26.02388             2.36868             1.54416             4.60547            12.33538             4.56045            15.04217             6.34192            14.72718             4.17313            31.98503             3.33997             7.04085            38.87919            47.56150             6.56038            37.06280            15.82068            23.82810             3.14781            19.44747            15.14300            70.58738             3.07949            17.24488             2.12274            39.29467           736.83091             0.85089             5.34390             2.30774             2.55588            24.68885           258.67821            43.90346             6.58066           101.67135             2.13157            17.38190            99.35541            14.87950            13.23114             2.38709            10.53168          1207.46563             1.79441             4.31387             7.49822             2.77477            11.70656             4.56471             5.17699             6.96131            10.78907            16.20672             9.78574            13.37765             5.69403             3.14764            32.18328            15.35437            16.29102             5.91732             2.52629             2.01612             6.83697             9.18065            23.52110             2.39156             2.73542            42.82678            13.55039             2.96054            11.40524            16.32579            17.44379            13.72173            70.36853             8.30582            22.49314             3.31572             9.88901            13.27265             3.51353             8.17038            27.88528            25.69259            16.32604             9.40211             6.35751             4.32141            20.60610           434.42143             5.15878             5.19843             8.71702           578.89140           349.98281             5.62830             5.71821             4.56212            31.82456            11.20500             5.88817             2.58929             9.09187             4.35843            13.57065             1.13348            19.88643             7.70545             1.30036            35.55580          2129.28507             4.95358             4.56191             4.69243            98.11104           785.81273            30.71049             2.00241            31.66771             6.23173            53.65882             5.87099             4.58319             4.82488           253.89007             2.15724             8.29297           267.58754            23.15197             5.32748           355.61580             1.11828             3.56056            96.80911             7.04815            19.59136             1.17751             4.76840            16.79046            30.15848             6.23195             2.21008             9.78775            28.10400             5.85479             7.38297             2.08645            41.47652            18.03376            19.49900             4.41096            22.22101             6.00595          1096.61174            34.20230           105.43551            18.18174             2.21691             6.26485             4.00573           182.45124             3.81772            17.85884            13.61744             3.87623             2.17646             4.33597            11.89801             4.12856           433.47834            16.14185            22.28050            27.37267             6.03552             3.418