# vtk DataFile Version 3.0
Output from R2
ASCII
DATASET UNSTRUCTURED_GRID
POINTS       5441 double
     0.00000     0.00000   0.
     1.00000    -0.02000   0.
     2.00000     0.06000   0.
     2.99000     0.18000   0.
     3.98000     0.34000   0.
     4.96000     0.50000   0.
     5.95000     0.66000   0.
     6.94000     0.82000   0.
     7.93000     0.98000   0.
     8.92000     1.11000   0.
     9.89000     1.34000   0.
    10.88000     1.51000   0.
    11.86000     1.68000   0.
    12.84000     1.91000   0.
    13.82000     2.07000   0.
    14.80000     2.27000   0.
    15.78000     2.47000   0.
    16.77000     2.61000   0.
    17.76000     2.77000   0.
    18.73000     3.02000   0.
    19.72000     3.12000   0.
    20.70000     3.32000   0.
    21.69000     3.51000   0.
    22.67000     3.66000   0.
    23.67000     3.76000   0.
    24.64000     3.99000   0.
    25.64000     4.07000   0.
    26.59000     4.39000   0.
    27.55000     4.65000   0.
    28.53000     4.88000   0.
    29.52000     4.98000   0.
    30.48000     5.26000   0.
    31.47000     5.43000   0.
    32.46000     5.58000   0.
    33.44000     5.75000   0.
    34.42000     5.93000   0.
    35.39000     6.20000   0.
    36.38000     6.32000   0.
    37.34000     6.58000   0.
    38.33000     6.75000   0.
    39.29000     7.04000   0.
    40.26000     7.25000   0.
    41.23000     7.51000   0.
    42.20000     7.74000   0.
    43.16000     8.05000   0.
    44.10000     8.37000   0.
    45.05000     8.70000   0.
    46.04000     8.78000   0.
    47.02000     8.98000   0.
    48.00000     9.17000   0.
    48.93000     9.56000   0.
    49.90000     9.80000   0.
    50.89000     9.88000   0.
    51.82000    10.26000   0.
    52.76000    10.59000   0.
    53.73000    10.85000   0.
    54.61000    11.32000   0.
    55.50000    11.78000   0.
    56.42000    12.18000   0.
    57.30000    12.65000   0.
    58.19000    13.11000   0.
    59.17000    13.29000   0.
    60.17000    13.35000   0.
    60.97000    13.94000   0.
    60.17000   -13.76000   0.
    60.97000   -13.16000   0.
     0.33300    -0.00700   0.
     0.66700    -0.01300   0.
     1.33300     0.00700   0.
     1.66700     0.03300   0.
     2.33000     0.10000   0.
     2.66000     0.14000   0.
     3.32000     0.23300   0.
     3.65000     0.28700   0.
     4.30700     0.39300   0.
     4.63300     0.44700   0.
     5.29000     0.55300   0.
     5.62000     0.60700   0.
     6.28000     0.71300   0.
     6.61000     0.76700   0.
     7.27000     0.87300   0.
     7.60000     0.92700   0.
     8.26000     1.02300   0.
     8.59000     1.06700   0.
     9.24300     1.18700   0.
     9.56700     1.26300   0.
    10.22000     1.39700   0.
    10.55000     1.45300   0.
    11.20700     1.56700   0.
    11.53300     1.62300   0.
    12.18700     1.75700   0.
    12.51300     1.83300   0.
    13.16700     1.96300   0.
    13.49300     2.01700   0.
    14.14700     2.13700   0.
    14.47300     2.20300   0.
    15.12700     2.33700   0.
    15.45300     2.40300   0.
    16.11000     2.51700   0.
    16.44000     2.56300   0.
    17.10000     2.66300   0.
    17.43000     2.71700   0.
    18.08300     2.85300   0.
    18.40700     2.93700   0.
    19.06000     3.05300   0.
    19.39000     3.08700   0.
    20.04700     3.18700   0.
    20.37300     3.25300   0.
    21.03000     3.38300   0.
    21.36000     3.44700   0.
    22.01700     3.56000   0.
    22.34300     3.61000   0.
    23.00300     3.69300   0.
    23.33700     3.72700   0.
    23.99300     3.83700   0.
    24.31700     3.91300   0.
    24.97300     4.01700   0.
    25.30700     4.04300   0.
    25.95700     4.17700   0.
    26.27300     4.28300   0.
    26.91000     4.47700   0.
    27.23000     4.56300   0.
    27.87700     4.72700   0.
    28.20300     4.80300   0.
    28.86000     4.91300   0.
    29.19000     4.94700   0.
    29.84000     5.07300   0.
    30.16000     5.16700   0.
    30.81000     5.31700   0.
    31.14000     5.37300   0.
    31.80000     5.48000   0.
    32.13000     5.53000   0.
    32.78700     5.63700   0.
    33.11300     5.69300   0.
    33.76700     5.81000   0.
    34.09300     5.87000   0.
    34.74300     6.02000   0.
    35.06700     6.11000   0.
    35.72000     6.24000   0.
    36.05000     6.28000   0.
    36.70000     6.40700   0.
    37.02000     6.49300   0.
    37.67000     6.63700   0.
    38.00000     6.69300   0.
    38.65000     6.84700   0.
    38.97000     6.94300   0.
    39.61300     7.11000   0.
    39.93700     7.18000   0.
    40.58300     7.33700   0.
    40.90700     7.42300   0.
    41.55300     7.58700   0.
    41.87700     7.66300   0.
    42.52000     7.84300   0.
    42.84000     7.94700   0.
    43.47300     8.15700   0.
    43.78700     8.26300   0.
    44.41700     8.48000   0.
    44.73300     8.59000   0.
    45.38000     8.72700   0.
    45.71000     8.75300   0.
    46.36700     8.84700   0.
    46.69300     8.91300   0.
    47.34700     9.04300   0.
    47.67300     9.10700   0.
    48.31000     9.30000   0.
    48.62000     9.43000   0.
    49.25300     9.64000   0.
    49.57700     9.72000   0.
    50.23000     9.82700   0.
    50.56000     9.85300   0.
    51.20000    10.00700   0.
    51.51000    10.13300   0.
    52.13300    10.37000   0.
    52.44700    10.48000   0.
    53.08300    10.67700   0.
    53.40700    10.76300   0.
    54.02300    11.00700   0.
    54.31700    11.16300   0.
    54.90700    11.47300   0.
    55.20300    11.62700   0.
    55.80700    11.91300   0.
    56.11300    12.04700   0.
    56.71300    12.33700   0.
    57.00700    12.49300   0.
    57.59700    12.80300   0.
    57.89300    12.95700   0.
    58.51700    13.17000   0.
    58.84300    13.23000   0.
    59.50300    13.31000   0.
    59.83700    13.33000   0.
    60.43700    13.54700   0.
    60.70300    13.74300   0.
    47.78000    -3.98000   0.
    30.65200    -7.37800   0.
     9.53100   -10.15100   0.
    19.07800    -7.21200   0.
    55.73600     1.38800   0.
    38.88700    -2.37800   0.
    25.65400    -2.46200   0.
    59.94000     7.58600   0.
     2.97600    -7.06900   0.
    32.08600    -1.12600   0.
    10.93900    -3.89800   0.
    49.09400     2.54600   0.
    43.29900     2.08300   0.
    15.99500    -2.75300   0.
    53.99500     6.34300   0.
    20.84600    -1.55400   0.
    38.67100   -11.15800   0.
    35.76800     1.63100   0.
     6.51500    -3.71100   0.
    28.41200     0.68300   0.
    55.34000    -6.61100   0.
    39.58300     3.04900   0.
    45.80600     4.94400   0.
     0.03800    -4.18200   0.
    14.34400    -7.29500   0.
    50.30900     6.05100   0.
    24.72300    -8.02700   0.
    45.90400   -10.95800   0.
    23.49100     0.37500   0.
    31.14200     2.39600   0.
    34.88000    -5.15100   0.
    56.59100     8.57800   0.
    13.11000    -1.35600   0.
    18.08500    -0.29000   0.
    59.50000    10.57200   0.
    42.67700    -6.52700   0.
     3.25400    -3.03800   0.
     8.83100    -1.89400   0.
    51.85100    -1.47100   0.
    42.06400     4.71100   0.
    43.14600    -2.14800   0.
    46.46900    -0.20600   0.
    29.29200    -3.89200   0.
    22.75100    -4.91600   0.
    33.65000     3.14800   0.
    16.91200   -11.14500   0.
     8.63200    -6.62500   0.
    37.18100     3.99900   0.
    57.51000     5.19500   0.
    52.39700     3.43700   0.
    15.48800    -0.25500   0.
    25.67000     1.59400   0.
    50.40900    -8.38900   0.
    47.65500     6.56400   0.
    21.02600     0.91100   0.
    35.38600    -1.78800   0.
    34.43000    -9.61200   0.
    38.71900    -6.37600   0.
    60.73000     1.32400   0.
    21.71100   -10.72800   0.
    12.91700   -12.95900   0.
    40.85000     0.15900   0.
    51.91200     7.84400   0.
    18.84500    -4.03300   0.
     5.14100   -11.06700   0.
     0.30200   -11.00300   0.
    27.84700   -10.87800   0.
    10.78800    -0.77500   0.
     5.15800    -1.81100   0.
    13.58300    -3.94200   0.
    58.09200    -2.61500   0.
    43.96700     6.10600   0.
    28.88900     2.76900   0.
    54.11600     8.67500   0.
    26.58800    -5.49700   0.
    38.32300     0.81900   0.
     1.33600    -2.12500   0.
    39.88000     5.09700   0.
    11.50900    -6.64200   0.
    16.49300    -5.45400   0.
    57.51600    10.58500   0.
    23.23100    -1.96500   0.
    45.74000     6.86700   0.
    33.55800     0.75800   0.
     7.07700    -1.07600   0.
    32.22300    -4.02500   0.
    45.88900     2.41800   0.
     5.83000    -6.50900   0.
    35.43000     4.26900   0.
    49.15700     7.63100   0.
    60.44600    -7.37000   0.
    54.26200   -10.94500   0.
    12.41600    -9.50000   0.
    46.36100    -7.26600   0.
    19.11000     1.30900   0.
    49.88700   -12.87900   0.
    28.03500    -1.75900   0.
    31.42000   -10.94000   0.
    51.24600    -4.93700   0.
     8.71800    -4.11100   0.
    22.44200     1.87400   0.
    42.26500   -10.09600   0.
    27.14400     2.81600   0.
    48.01500     4.41500   0.
    13.65900     0.34300   0.
    21.98700    -7.54600   0.
    16.84400     0.89500   0.
    30.55400     0.38600   0.
     7.13700    -8.90700   0.
    49.14700    -0.32200   0.
    43.98100     4.00200   0.
    25.37100    -0.45900   0.
    32.22200     3.87100   0.
    41.11100    -4.09200   0.
    24.13900     2.13400   0.
    16.81000    -8.01200   0.
    44.89400    -4.40800   0.
    55.55400     9.86500   0.
    54.96400     3.91500   0.
     3.38800    -1.36700   0.
    41.54000     2.83400   0.
    27.86600    -8.01500   0.
    17.87800    -2.20200   0.
    54.75000    -3.18400   0.
    51.17800     1.30400   0.
    36.92400    -3.73900   0.
    11.95500     0.17800   0.
[...]
POINT_DATA      5441
CELL_DATA     10507
SCALARS Resistivity(Ohm-m) double 1
LOOKUP_TABLE default
             5.66210            13.29164             3.64352             5.44946            13.21741             3.25286             9.95114             2.70592             2.65243             6.72168             2.85909             8.58305            25.50039             2.90370            26.58650             8.95365             4.73598            18.08838            16.34436            11.86916            17.02237             4.80972            12.23156            77.13635           273.37785            93.15500            25.48321             6.24926            15.78799            23.32832            36.61163            86.80290             0.95752           294.71828             8.08066             2.58971             4.45878           148.21907             8.01095            35.77788            10.72617           175.57742             3.52972            34.67663             4.29156            46.15097            10.07405           339.27779             9.70341            12.13530           226.39719            13.94392            24.08949            12.47997             2.41488             4.75759             9.22245             9.68867             4.76666             0.97415             8.88050             8.70679           363.80062             6.19012            10.02210            17.28626            36.37074             2.37839             7.35480           188.93824            78.53416             6.88016            13.16389           144.96565            12.52642             3.28190            10.32897            14.23205             5.73220            20.16160            12.30167            16.15910             8.56573             9.27181             5.93746             4.70235             3.08103           386.67163            12.78301            14.43047            33.50524            15.23904            52.98661             3.56283             4.40476            41.42726             2.74224             2.24174             3.03055             4.99918            50.25932             5.87207            11.45793           555.40046             7.59882             6.45542             3.40688           780.17405             4.64651           349.30639            36.22410             1.62682            21.62136            13.41622            20.52160             8.80888             3.28814            78.12021            35.78552            13.97417           154.52168             7.59230             7.86104            19.80032           122.45305            12.53292            15.10608           344.36876           527.86094            17.82996           217.91800            13.55531             6.36073            81.53906            14.69473            25.72853            11.50436            10.63115             4.32993             4.72731             3.55595            11.81484             2.49434            21.45441            17.31101             5.64272            16.09335             6.31267            12.70947            11.66504            31.51331             6.75443             4.06171             7.85731           325.32093             9.64415            10.49712             4.29730            39.21812             3.47454           561.07620            13.34046             4.11306             4.13429            17.89327             3.54758            40.70553             1.28468            19.23361             7.47442             4.45358             6.32698             7.15239           430.88879            68.52218            23.68833            61.38557             7.87172             3.59254           462.48621             5.49725             5.36935            46.68080            17.78014             9.42911            51.53663            10.77809             8.27446            16.22722             4.15531             5.61142            10.07519           248.20870            12.57668            10.79199           376.05446             4.62677           283.81073             1.83643             2.68450             8.89600            20.68477             7.31507            31.73792             6.15488            13.70055            13.48800            16.32448             6.75042            61.58149             7.99732             8.73639             6.70953           829.47914           432.60966             5.92869            36.93086             1.21667            16.81186             1.56846             6.81313            39.25567           413.48302            54.71482            13.01542            51.54778           148.08562             5.76924             9.85463           285.86700            43.69345             7.55286             6.57889             9.76358           138.16708            34.72850             2.32388             2.41406             1.00453            52.39257           484.59562            15.73786             3.63171            18.42141            28.64251             7.65529            59.39305             3.41383             2.59936            74.05035           180.82630            29.98866            33.62579             2.93789           452.49049             1.38905            11.35788             5.03267             9.61978             1.29162             2.99054             1.03188            63.02644             6.42582            24.77759            11.91504           116.82747            19.39437            39.39498           335.91035          1195.77693            79.28986            45.44587            20.76320             4.56760             8.76592            31.09971            42.14155             4.11262            62.81975            97.55647            18.59753            12.31719            11.53613             6.66640            29.26485            13.29754           256.72374             2.86735           145.08223             0.93313            50.19350            28.19103            36.40998            64.75627             9.73587           300.22105             7.47392             1.46209            37.39733            15.42880            12.08817             5.79593             3.06875             1.41667             7.70246           646.59998             5.65464             4.04692             3.61677          1031.84559             6.07813             6.33317             3.55562             1.95579             4.15234            14.45864             2.79332             7.84500             3.69354           354.67034             7.84384             6.00662            27.64978             8.97425             4.91092             6.73858             5.04193             6.76145             8.34351           138.84966           376.52794             2.30484           210.95692            37.01122            17.60611            36.89240             4.05779            17.66071             3.12123            22.20220             4.65246            37.78521            42.34278            32.09950             3.78956             5.74372             6.87815             6.92425            32.82300            62.06953             4.28666             6.76114            23.68395             2.32642           392.42919            45.37748             5.14580           165.33696            11.52085            29.51170             4.30209           301.76326            51.05733            12.09376             7.67676             2.77014             3.01750            11.68598             2.25584           146.89921            26.57167             5.02943             9.67468            11.33677            17.07598             5.19531             5.55403           162.73781             6.21913            46.09373             7.57032             7.29944           284.80847            53.50407           152.25081            35.54253            45.48419             3.65346             2.14677             4.83105            16.75861            10.77856             5.87604             6.09222            20.67385             1.17789             7.56642           178.91450             6.60479             9.63003             1.94489             4.99529             6.88226           131.17666             4.26423            18.87440            10.07378             1.32144             4.78463            12.70143             5.04618            13.77650            25.91450             1.02591            24.36635             4.93990            13.81244            39.26418           192.32223            24.89535           254.71057             2.39231             6.97897             5.89491            57.40173             3.02640             3.99541           917.55964             8.12419            17.17834           192.67370            26.93027             7.24648            25.21734            30.76559             8.24597             2.84642            19.68226            16.80518            56.62447             5.35186            19.97665             5.44487             5.34680           141.74471           747.86488            27.28114             4.71436             7.92477             4.64915            22.37809             3.21865           406.47788             5.72233            31.65783             6.84952            15.39821           144.57811             3.10766             2.99781            41.31483           739.73427             3.46720            78.42085            45.04602             8.77018            12.34553            45.16905           131.88012            27.86837             3.81701             7.65857             7.43043             6.38721           314.36691             5.46155             8.22751             2.75647           419.31114            18.86289            34.71896           334.52968             1.47221            50.55201            15.27154             5.89410            38.31920             2.45121            23.73311            20.19410            59.31288            14.10578             3.84332            15.65467             6.76275            32.40241            13.28223             6.22516           738.34874           369.41090            92.54567            68.10715             7.25119           402.29240             2.04557            15.32579            13.65377            17.81549            15.76766            10.28994            79.23987             5.86147             5.87640             6.85060             8.19989            25.92925            28.97055            15.41717            80.82063             4.98807             7.27969           145.40065            15.71513             5.09176           254.63736             2.86331             1.69073            17.44458             6.15036            14.98093            18.32959             6.16365           143.67685             4.69429             5.11956             4.26082             5.32662             4.33924           184.92985             4.86129            65.58251             4.89386            13.73337            85.46965           217.01686            87.22838             4.81451            13.61894            11.33231             2.22149             6.83373             2.23810             9.80299             9.87680            14.12636             5.31499            23.72536            31.53057            70.46478           256.53789            30.02911             7.83387             6.04469           351.39835             4.16058             8.60264            31.89385           398.55173             9.61554             3.76999             8.65391            42.22193            51.29780           291.67582             2.76536             4.59606            32.55184             4.65719             4.34682             6.54866             8.08535            57.65822           145.15123             9.18764           319.34237            25.19494            38.18302            20.77436             1.48582             9.23706             7.72957             4.64780            18.57178            58.90390             5.25525             9.18589             6.00150            20.99728            13.35314             2.13515             4.36161             4.96079             0.89220             2.49674             6.66806           723.09386             5.23679            26.92164             4.24898             2.24103             2.72498          1072.59175             7.11113             4.79507             4.99227            21.46775           183.45476             5.13147             2.33390             7.70847           237.47495             3.64358            11.08070            36.41317            12.00860            32.82241            40.41873            29.08981            38.50855             3.80404            12.00990             7.89383             6.24578             3.44926            77.75747            40.67372             8.32917             5.85421             1.87510           275.23731           953.52404             8.48222            17.43204            16.73245             7.67036             6.18817            21.26872            35.43200            42.27113            25.05502            19.27428            11.05073             4.01888             1.72686             9.05211             2.01201             6.99322            34.82374            24.12111             0.82334             4.26611             1.90831            10.58356           182.63051             4.55545             0.83030            22.93447             3.08496            10.85635             1.71839            38.24247            13.17156             9.94063             6.91535           207.37919             4.92882             6.06919             7.15484             8.10822           133.98177            46.94489           262.52675            41.14391             2.01794             7.54147           431.54914           742.51045            11.22896             3.71804             8.92632             3.16203             3.12418            64.57786           838.88356            60.76541             4.95080            65.19971             4.59312             1.54569           760.64869            17.34504          1082.30832            17.42944             6.09396            12.54342             5.47883            23.96888             1.46964            27.25590            25.04824             7.90966            12.23020             9.34163             9.03974            12.29417            12.72925            68.48209             3.91943            76.02691            34.19770            61.77470             5.06409             1.91315             9.69774           801.35946           252.69819             0.98573            22.78433             5.80747            10.91841            34.28194             6.38611            11.61907            23.93589            17.92150             4.81218           852.99213           391.54848            44.84654             2.34214             4.58333             3.76143            15.85543            15.80156             4.51420            37.59285            12.02944             6.38566            66.83969            10.03132           117.80009            27.68742             8.21284             5.24125            64.24122             4.08887           304.22170             7.09359             2.04056            28.92217             6.23587             7.52960            69.27722             3.58348             4.01420             9.57617            25.54619            14.95084             2.07287            12.49157             8.65747            12.06925             3.85870             7.75395           709.11037            13.48030            16.72001           199.86961             6.01985             2.14230            54.76087            15.61274             2.59153             4.11784            11.83960             6.79084            12.08577             2.39735            48.24851           144.73653             3.40509             7.39281            18.02411             5.31720            11.59932           725.39945             7.82843             6.93983            37.00963             6.63848            11.08002            11.61550             4.90000            26.83408             2.26148             3.47358             6.43669            54.72913             4.14428           344.22237            14.31046             5.50244             2.21127            34.51693             2.01952             7.19145            26.19527             2.35691             1.54083             4.61296            12.32688             4.55760            15.02537             6.31580            14.74210             4.16592            32.67891             3.33527             7.03087            38.67313            48.75729             6.58947            37.25263            15.79457            23.94628             3.14726            19.39682            15.23826            70.36362             3.07506            17.46227             2.12213            39.49621           737.69571             0.84967             5.33148             2.30611             2.55810            24.71807           259.89942            44.53441             6.56659            99.46369             2.13205            17.36100            99.56142            14.91091            13.21242             2.38777            10.57337          1203.41068             1.79377             4.30641             7.48896             2.77500            11.70553             4.56936             5.17541             6.97139            10.79476            16.24574             9.83803            13.35784             5.68551             3.14204            32.22091            15.33666            16.29354             5.90908             2.52460             2.01272             6.81844             9.14349            23.69961             2.38988             2.73628            43.19066            13.56855             2.95581            11.44109            16.35892            17.45259            13.69718            70.06953             8.28878            22.63273             3.31059             9.91089            13.12550             3.50853             8.10064            27.93875            25.63913            16.19503             9.45147             6.34680             4.31790            19.86424           415.38099             5.14992             5.19554             8.72103           573.90737           349.89842             5.63781             5.70847             4.57178            32.61166            11.20027             5.84767             2.58770             9.13659             4.34870            13.55275             1.13163            19.87713             7.69638             1.29832            35.17515          2195.04885             4.95135             4.56954             4.66917            97.52834           764.10905            30.77608             1.99468            31.00984             6.21905            53.18351             5.87094             4.59085             4.82510           249.88158             2.15416             8.34515           280.80489            22.78289             5.29349           352.34182             1.11660             3.53999            91.48611             7.06312            19.49750             1.17417             4.74340            16.80029            30.08696             6.22301             2.20870             9.81464            27.87037             5.86578             7.42423             2.07987            40.87183            18.38819            19.43357             4.40238            22.37038             5.99065          1095.90680            32.84322           101.96600            18.21326             2.21436             6.24343             4.00026           181.21994             3.80927            17.80644            13.60627             3.87046             2.17291             4.32817            11.90652             4.12100           415.50558            16.15339            21.52514            27.44727             6.07437             3.412