# vtk DataFile Version 3.0
Output from R2
ASCII
DATASET UNSTRUCTURED_GRID
POINTS       5441 double
     0.00000     0.00000   0.
     1.00000    -0.02000   0.
     2.00000     0.06000   0.
     2.99000     0.18000   0.
     3.98000     0.34000   0.
     4.96000     0.50000   0.
     5.95000     0.66000   0.
     6.94000     0.82000   0.
     7.93000     0.98000   0.
     8.92000     1.11000   0.
     9.89000     1.34000   0.
    10.88000     1.51000   0.
    11.86000     1.68000   0.
    12.84000     1.91000   0.
    13.82000     2.07000   0.
    14.80000     2.27000   0.
    15.78000     2.47000   0.
    16.77000     2.61000   0.
    17.76000     2.77000   0.
    18.73000     3.02000   0.
    19.72000     3.12000   0.
    20.70000     3.32000   0.
    21.69000     3.51000   0.
    22.67000     3.66000   0.
    23.67000     3.76000   0.
    24.64000     3.99000   0.
    25.64000     4.07000   0.
    26.59000     4.39000   0.
    27.55000     4.65000   0.
    28.53000     4.88000   0.
    29.52000     4.98000   0.
    30.48000     5.26000   0.
    31.47000     5.43000   0.
    32.46000     5.58000   0.
    33.44000     5.75000   0.
    34.42000     5.93000   0.
    35.39000     6.20000   0.
    36.38000     6.32000   0.
    37.34000     6.58000   0.
    38.33000     6.75000   0.
    39.29000     7.04000   0.
    40.26000     7.25000   0.
    41.23000     7.51000   0.
    42.20000     7.74000   0.
    43.16000     8.05000   0.
    44.10000     8.37000   0.
    45.05000     8.70000   0.
    46.04000     8.78000   0.
    47.02000     8.98000   0.
    48.00000     9.17000   0.
    48.93000     9.56000   0.
    49.90000     9.80000   0.
    50.89000     9.88000   0.
    51.82000    10.26000   0.
    52.76000    10.59000   0.
    53.73000    10.85000   0.
    54.61000    11.32000   0.
    55.50000    11.78000   0.
    56.42000    12.18000   0.
    57.30000    12.65000   0.
    58.19000    13.11000   0.
    59.17000    13.29000   0.
    60.17000    13.35000   0.
    60.97000    13.94000   0.
    60.17000   -13.76000   0.
    60.97000   -13.16000   0.
     0.33300    -0.00700   0.
     0.66700    -0.01300   0.
     1.33300     0.00700   0.
     1.66700     0.03300   0.
     2.33000     0.10000   0.
     2.66000     0.14000   0.
     3.32000     0.23300   0.
     3.65000     0.28700   0.
     4.30700     0.39300   0.
     4.63300     0.44700   0.
     5.29000     0.55300   0.
     5.62000     0.60700   0.
     6.28000     0.71300   0.
     6.61000     0.76700   0.
     7.27000     0.87300   0.
     7.60000     0.92700   0.
     8.26000     1.02300   0.
     8.59000     1.06700   0.
     9.24300     1.18700   0.
     9.56700     1.26300   0.
    10.22000     1.39700   0.
    10.55000     1.45300   0.
    11.20700     1.56700   0.
    11.53300     1.62300   0.
    12.18700     1.75700   0.
    12.51300     1.83300   0.
    13.16700     1.96300   0.
    13.49300     2.01700   0.
    14.14700     2.13700   0.
    14.47300     2.20300   0.
    15.12700     2.33700   0.
    15.45300     2.40300   0.
    16.11000     2.51700   0.
    16.44000     2.56300   0.
    17.10000     2.66300   0.
    17.43000     2.71700   0.
    18.08300     2.85300   0.
    18.40700     2.93700   0.
    19.06000     3.05300   0.
    19.39000     3.08700   0.
    20.04700     3.18700   0.
    20.37300     3.25300   0.
    21.03000     3.38300   0.
    21.36000     3.44700   0.
    22.01700     3.56000   0.
    22.34300     3.61000   0.
    23.00300     3.69300   0.
    23.33700     3.72700   0.
    23.99300     3.83700   0.
    24.31700     3.91300   0.
    24.97300     4.01700   0.
    25.30700     4.04300   0.
    25.95700     4.17700   0.
    26.27300     4.28300   0.
    26.91000     4.47700   0.
    27.23000     4.56300   0.
    27.87700     4.72700   0.
    28.20300     4.80300   0.
    28.86000     4.91300   0.
    29.19000     4.94700   0.
    29.84000     5.07300   0.
    30.16000     5.16700   0.
    30.81000     5.31700   0.
    31.14000     5.37300   0.
    31.80000     5.48000   0.
    32.13000     5.53000   0.
    32.78700     5.63700   0.
    33.11300     5.69300   0.
    33.76700     5.81000   0.
    34.09300     5.87000   0.
    34.74300     6.02000   0.
    35.06700     6.11000   0.
    35.72000     6.24000   0.
    36.05000     6.28000   0.
    36.70000     6.40700   0.
    37.02000     6.49300   0.
    37.67000     6.63700   0.
    38.00000     6.69300   0.
    38.65000     6.84700   0.
    38.97000     6.94300   0.
    39.61300     7.11000   0.
    39.93700     7.18000   0.
    40.58300     7.33700   0.
    40.90700     7.42300   0.
    41.55300     7.58700   0.
    41.87700     7.66300   0.
    42.52000     7.84300   0.
    42.84000     7.94700   0.
    43.47300     8.15700   0.
    43.78700     8.26300   0.
    44.41700     8.48000   0.
    44.73300     8.59000   0.
    45.38000     8.72700   0.
    45.71000     8.75300   0.
    46.36700     8.84700   0.
    46.69300     8.91300   0.
    47.34700     9.04300   0.
    47.67300     9.10700   0.
    48.31000     9.30000   0.
    48.62000     9.43000   0.
    49.25300     9.64000   0.
    49.57700     9.72000   0.
    50.23000     9.82700   0.
    50.56000     9.85300   0.
    51.20000    10.00700   0.
    51.51000    10.13300   0.
    52.13300    10.37000   0.
    52.44700    10.48000   0.
    53.08300    10.67700   0.
    53.40700    10.76300   0.
    54.02300    11.00700   0.
    54.31700    11.16300   0.
    54.90700    11.47300   0.
    55.20300    11.62700   0.
    55.80700    11.91300   0.
    56.11300    12.04700   0.
    56.71300    12.33700   0.
    57.00700    12.49300   0.
    57.59700    12.80300   0.
    57.89300    12.95700   0.
    58.51700    13.17000   0.
    58.84300    13.23000   0.
    59.50300    13.31000   0.
    59.83700    13.33000   0.
    60.43700    13.54700   0.
    60.70300    13.74300   0.
    47.78000    -3.98000   0.
    30.65200    -7.37800   0.
     9.53100   -10.15100   0.
    19.07800    -7.21200   0.
    55.73600     1.38800   0.
    38.88700    -2.37800   0.
    25.65400    -2.46200   0.
    59.94000     7.58600   0.
     2.97600    -7.06900   0.
    32.08600    -1.12600   0.
    10.93900    -3.89800   0.
    49.09400     2.54600   0.
    43.29900     2.08300   0.
    15.99500    -2.75300   0.
    53.99500     6.34300   0.
    20.84600    -1.55400   0.
    38.67100   -11.15800   0.
    35.76800     1.63100   0.
     6.51500    -3.71100   0.
    28.41200     0.68300   0.
    55.34000    -6.61100   0.
    39.58300     3.04900   0.
    45.80600     4.94400   0.
     0.03800    -4.18200   0.
    14.34400    -7.29500   0.
    50.30900     6.05100   0.
    24.72300    -8.02700   0.
    45.90400   -10.95800   0.
    23.49100     0.37500   0.
    31.14200     2.39600   0.
    34.88000    -5.15100   0.
    56.59100     8.57800   0.
    13.11000    -1.35600   0.
    18.08500    -0.29000   0.
    59.50000    10.57200   0.
    42.67700    -6.52700   0.
     3.25400    -3.03800   0.
     8.83100    -1.89400   0.
    51.85100    -1.47100   0.
    42.06400     4.71100   0.
    43.14600    -2.14800   0.
    46.46900    -0.20600   0.
    29.29200    -3.89200   0.
    22.75100    -4.91600   0.
    33.65000     3.14800   0.
    16.91200   -11.14500   0.
     8.63200    -6.62500   0.
    37.18100     3.99900   0.
    57.51000     5.19500   0.
    52.39700     3.43700   0.
    15.48800    -0.25500   0.
    25.67000     1.59400   0.
    50.40900    -8.38900   0.
    47.65500     6.56400   0.
    21.02600     0.91100   0.
    35.38600    -1.78800   0.
    34.43000    -9.61200   0.
    38.71900    -6.37600   0.
    60.73000     1.32400   0.
    21.71100   -10.72800   0.
    12.91700   -12.95900   0.
    40.85000     0.15900   0.
    51.91200     7.84400   0.
    18.84500    -4.03300   0.
     5.14100   -11.06700   0.
     0.30200   -11.00300   0.
    27.84700   -10.87800   0.
    10.78800    -0.77500   0.
     5.15800    -1.81100   0.
    13.58300    -3.94200   0.
    58.09200    -2.61500   0.
    43.96700     6.10600   0.
    28.88900     2.76900   0.
    54.11600     8.67500   0.
    26.58800    -5.49700   0.
    38.32300     0.81900   0.
     1.33600    -2.12500   0.
    39.88000     5.09700   0.
    11.50900    -6.64200   0.
    16.49300    -5.45400   0.
    57.51600    10.58500   0.
    23.23100    -1.96500   0.
    45.74000     6.86700   0.
    33.55800     0.75800   0.
     7.07700    -1.07600   0.
    32.22300    -4.02500   0.
    45.88900     2.41800   0.
     5.83000    -6.50900   0.
    35.43000     4.26900   0.
    49.15700     7.63100   0.
    60.44600    -7.37000   0.
    54.26200   -10.94500   0.
    12.41600    -9.50000   0.
    46.36100    -7.26600   0.
    19.11000     1.30900   0.
    49.88700   -12.87900   0.
    28.03500    -1.75900   0.
    31.42000   -10.94000   0.
    51.24600    -4.93700   0.
     8.71800    -4.11100   0.
    22.44200     1.87400   0.
    42.26500   -10.09600   0.
    27.14400     2.81600   0.
    48.01500     4.41500   0.
    13.65900     0.34300   0.
    21.98700    -7.54600   0.
    16.84400     0.89500   0.
    30.55400     0.38600   0.
     7.13700    -8.90700   0.
    49.14700    -0.32200   0.
    43.98100     4.00200   0.
    25.37100    -0.45900   0.
    32.22200     3.87100   0.
    41.11100    -4.09200   0.
    24.13900     2.13400   0.
    16.81000    -8.01200   0.
    44.89400    -4.40800   0.
    55.55400     9.86500   0.
    54.96400     3.91500   0.
     3.38800    -1.36700   0.
    41.54000     2.83400   0.
    27.86600    -8.01500   0.
    17.87800    -2.20200   0.
    54.75000    -3.18400   0.
    51.17800     1.30400   0.
    36.92400    -3.73900   0.
    11.95500     0.17800   0.
[...]
POINT_DATA      5441
CELL_DATA     10507
SCALARS Resistivity(Ohm-m) double 1
LOOKUP_TABLE default
             5.67428            13.65472             3.65658             5.46173            13.59006             3.25922            10.07175             2.71358             2.66077             6.75882             2.88011             8.66391            25.96590             2.92575            27.21727             9.07502             4.79286            18.63595            16.86289            11.98789            17.59623             4.87141            12.37948            78.23970           284.20970            93.51605            25.96886             6.27921            16.09784            23.63559            36.45070            81.04241             0.96151           315.76481             8.18160             2.59702             4.46485           155.29964             8.12450            36.46546            10.87703           178.42407             3.54562            37.91939             4.29899            48.44886            10.35216           310.80816             9.80143            12.45973           217.40249            14.15385            25.80063            12.94503             2.42262             4.77258             9.27628             9.78118             4.78086             0.97854             9.24282             8.74749           364.70528             6.20952            10.11664            17.93251            37.24273             2.39515             7.38273           189.87501            78.84732             6.94353            13.54379           149.14083            12.75188             3.29800            10.43710            14.46339             5.80461            21.51834            12.46784            16.34585             8.60587             9.54134             5.95546             4.71137             3.08649           359.66887            12.91407            14.57540            34.46161            15.67156            53.38086             3.59480             4.41648            42.69103             2.74755             2.25646             3.03747             5.05857            51.61224             5.89008            11.63039           583.38281             7.78801             6.50279             3.41221           730.90173             4.66298           329.30602            37.36416             1.63178            22.16265            13.77753            21.29947             9.10936             3.30667            81.20244            37.35065            14.22158           152.62818             7.69462             7.88297            20.61784           128.22514            12.69491            15.26945           372.17248           517.74959            18.17471           224.54469            13.76117             6.55983            78.59653            14.91338            26.27352            11.57230            10.74500             4.45610             4.75778             3.61970            12.53885             2.49929            22.44023            17.63559             5.65843            16.41141             6.34411            13.03242            11.80902            32.32925             6.80397             4.11351             7.99341           295.33736             9.74479            10.62856             4.39473            40.45722             3.48267           535.10901            13.58159             4.22927             4.14224            18.32688             3.59378            42.57497             1.29383            19.53600             7.55415             4.46462             6.48954             7.22474           432.61346            72.01378            24.20656            64.41528             7.92239             3.60351           458.59446             5.52614             5.41765            49.54015            18.04679             9.53085            49.88463            10.86056             8.32995            16.47248             4.16107             5.63292            10.18696           223.02988            13.07347            11.00079           379.64410             4.73566           276.43830             1.84229             2.68810             8.94451            21.79807             7.37702            31.77780             6.29882            14.09882            13.89005            16.59451             6.79472            64.32726             8.04603             9.02086             6.76658           791.66202           435.62468             5.97566            37.76831             1.22024            17.12024             1.57212             6.86266            40.47361           388.85019            56.54099            13.11387            51.84392           143.69185             5.86280             9.93568           279.24278            47.73988             7.61457             6.65830             9.88247           138.80134            35.78302             2.32771             2.41834             1.01073            53.39357           527.52167            16.11781             3.64263            18.69874            29.26018             7.73686            61.64577             3.42111             2.62923            77.07898           166.26774            31.21928            34.99245             2.95739           439.35496             1.39449            11.91499             5.06908             9.78659             1.30063             3.01410             1.03591            64.09957             6.48055            26.05497            12.58234           119.59992            19.96180            40.44325           318.05077          1127.02365            81.20357            47.26590            21.55853             4.62922             8.88248            32.06270            42.22758             4.11994            64.85861           103.01935            19.60548            13.18768            12.13714             6.76218            30.27887            13.96339           289.37869             2.88087           149.20589             0.93811            52.18853            28.99590            37.58631            71.32039             9.80385           308.10872             7.57025             1.46560            38.95854            15.71110            12.47118             5.84431             3.10929             1.42486             7.75761           672.45910             5.67615             4.09812             3.62052           984.44202             6.13772             6.40789             3.56245             1.96465             4.18597            14.51661             2.80777             7.99673             3.80672           344.85547             7.95883             6.05415            27.62972             9.04060             4.92362             6.78202             5.09594             6.79086             8.38969           128.72788           379.17523             2.31071           213.70470            38.76436            18.27491            38.07518             4.08269            18.18891             3.13088            22.74853             4.66686            39.14333            44.58886            33.34664             3.83037             5.82092             6.93642             7.04731            34.04973            60.03286             4.29569             6.80929            24.21278             2.35924           378.64553            46.59075             5.15486           166.71009            12.02965            30.22285             4.31281           303.29280            51.30951            12.17405             7.75859             2.77488             3.03127            11.81684             2.26800           143.19145            27.19217             5.04448             9.78464            11.49295            16.96408             5.28138             5.57482           167.22803             6.29485            47.87172             7.88212             7.35028           293.21179            56.73640           152.92264            36.31555            48.47533             3.65966             2.16085             4.84496            17.13508            10.93120             5.99485             6.19422            21.73191             1.18367             7.60629           183.55048             6.73290             9.71687             1.95314             5.00531             6.94334           134.96021             4.29547            19.75715            10.13035             1.32779             4.79528            13.69043             5.07931            14.04803            26.63359             1.02969            24.25347             5.03188            14.00804            39.20103           202.68515            25.72965           261.11489             2.42448             7.15620             5.95455            60.06591             3.05014             4.00378           787.79701             8.16108            17.22661           216.41217            27.99660             7.27143            27.70827            31.69581             8.28589             2.90242            20.73255            17.31109            59.94262             5.39503            20.58968             5.46566             5.35895           149.23586           587.97817            27.78379             4.76589             8.01288             4.67182            23.05408             3.23144           405.62880             5.87250            32.32926             6.91620            15.68003           136.93127             3.11477             3.02171            42.55172          1138.08962             3.48091            81.64642            45.54084             8.82324            12.36879            47.01259           132.33419            28.95162             3.83477             7.71844             7.46963             6.41286           306.40374             5.55895             8.31121             2.77816           416.63613            19.35653            35.68050           324.10219             1.47626            51.89360            15.56297             6.06858            39.27173             2.47483            24.50958            20.82280            62.90757            14.33493             3.84962            16.38588             6.96399            33.16446            13.33703             6.26123           695.03892           386.64727            95.92805            68.04897             7.28880           329.00525             2.05070            15.52203            14.57961            18.17231            16.17413            10.39323            81.60235             5.95922             5.89122             6.89731             8.25715            27.56104            29.65109            16.49681            85.43202             5.06993             7.32847           149.29917            17.36423             5.10231           258.62962             2.88041             1.69674            17.77368             6.22528            15.08133            18.76708             6.20010           148.58958             4.73834             5.16610             4.26850             5.36387             4.43736           188.05087             4.89630            66.82210             4.94270            13.92915            87.83390           206.12297            85.38562             4.86970            13.81157            11.49371             2.25199             6.88959             2.26402            10.15596             9.92189            14.98699             5.32804            24.52949            32.76140            75.82225           262.18233            30.69362             7.90808             6.10694           350.35800             4.18183             8.64845            32.50041           402.29994             9.76840             3.77852             8.75734            44.06704            53.16204           255.88050             2.78142             4.62151            33.29016             4.68133             4.35578             6.61885             8.39840            56.35188           151.83669             9.35684           332.45621            25.80660            38.54384            21.60552             1.49593             9.33983             7.78909             4.65704            19.18427            66.82320             5.29379             9.56348             6.04824            22.31555            13.55041             2.14910             4.37303             4.98905             0.89628             2.50270             6.68911           698.05369             5.24781            27.95882             4.25837             2.25749             2.73252           742.85781             7.17855             4.80813             5.08374            21.80970           169.90166             5.14578             2.34466             7.75790           211.93880             3.65470            11.18600            38.74106            12.07164            33.46901            41.81050            29.11706            40.07504             3.81936            12.28455             7.97771             6.28084             3.51178            81.05869            41.96890             8.48856             5.92348             1.88193           264.66036           885.57275             8.52801            17.65561            17.43624             7.73399             6.21458            22.55074            36.29508            43.31579            25.85640            19.90578            11.18033             4.02419             1.72926             9.15872             2.02878             7.03755            35.79225            24.69812             0.82861             4.27298             1.91638            10.71815           181.95617             4.56962             0.83341            24.18594             3.09901            11.28995             1.73575            40.22450            13.38633            10.02318             6.94531           218.29356             4.98249             6.16195             7.21413             8.17992           132.90076            48.31420           268.88522            42.56177             2.02696             7.61539           415.12943           755.29111            11.38387             3.72326             9.02466             3.22176             3.17217            69.15630           737.44825            63.27654             4.98662            67.48722             4.65374             1.55854           710.87897            18.01872          1059.55281            18.27751             6.10954            12.65659             5.51650            24.48281             1.47689            27.77387            25.90886             7.94295            12.37735             9.44390             9.08999            12.40550            13.07008            70.17800             3.92934            78.72597            35.43356            59.40210             5.14838             1.91698             9.81933           763.42859           251.45865             0.99078            23.44405             5.86746            11.06218            34.31850             6.49626            11.73699            24.38531            18.15913             4.87287           775.83849           387.66706            44.72109             2.38469             4.72291             3.81202            16.19849            16.32007             4.52769            40.10140            12.35295             6.40751            69.93275            10.16611           122.18696            28.42612             8.30854             5.25352            65.40003             4.09679           302.85727             7.14468             2.05160            30.95569             6.30406             7.61074            71.19046             3.62063             4.01932             9.66906            25.88637            15.15078             2.07933            12.62108             8.70343            12.17681             3.91773             7.79592           687.41823            14.14184            17.26875           184.72716             6.07691             2.14814            54.61466            15.92731             2.60530             4.12441            12.21321             6.87388            12.32063             2.40646            51.55039           158.20381             3.41363             7.47233            18.46249             5.44283            12.17576           725.03035             7.86914             7.00938            40.83374             6.65611            11.44060            11.81570             4.94114            27.06715             2.26544             3.47864             6.63924            55.18364             4.23950           325.91888            14.82537             5.59810             2.22385            34.90218             2.03093             7.21421            26.70873             2.39787             1.55110             4.63158            12.67372             4.57382            15.26144             6.42072            15.36220             4.17761            33.36985             3.33921             7.10279            39.89375            51.24127             6.63459            38.64278            15.95835            24.58232             3.16599            19.69882            15.20008            73.01915             3.09216            17.66663             2.13143            41.08831           709.76669             0.85245             5.35572             2.30982             2.57880            25.13380           259.60938            46.89820             6.59998           100.79055             2.14601            18.74050           102.13496            15.23174            13.34259             2.40050            10.73901           771.23673             1.80230             4.31342             7.57612             2.79312            11.92348             4.58630             5.20850             7.04011            10.93570            16.40623             9.99519            13.45356             5.69617             3.15232            32.88854            15.69063            16.62794             5.92251             2.52806             2.02020             6.93022             9.39062            24.74428             2.39648             2.75905            42.76476            13.65884             2.96644            11.59534            16.51153            17.96774            13.81704            72.78127             8.38993            23.04297             3.31494            10.02019            13.29471             3.51990             8.19810            29.97647            26.21687            17.59803             9.61310             6.36161             4.32646            20.69318           394.62848             5.16804             5.23348             8.76263           543.52570           356.10913             5.70665             5.72165             4.58881            32.96474            11.32564             6.02482             2.59869             9.32529             4.37528            13.96420             1.13569            20.85819             7.73033             1.30310            36.44478          2065.59170             4.96504             4.59012             4.76863            96.42397           740.86132            31.23586             2.01837            32.04835             6.25613            56.03679             5.95077             4.60991             4.85016           225.87678             2.15954             8.46219           277.41576            23.99383             5.43473           311.10576             1.12015             3.61844            91.94589             7.16958            20.08687             1.18313             4.83557            17.62390            30.65910             6.23465             2.21582             9.92271            29.00296             5.93781             7.50533             2.10169            42.81974            19.12998            19.81385             4.44181            22.82656             6.03393          1123.29257            33.54743           104.25404            18.56189             2.21890             6.30180             4.01586           181.19450             3.84305            18.47627            13.72632             3.87552             2.18168             4.34517            12.03888             4.13556           412.55973            16.31910            22.25956            28.47788             6.11031             3.421