# vtk DataFile Version 3.0
Output from R2
ASCII
DATASET UNSTRUCTURED_GRID
POINTS       5441 double
     0.00000     0.00000   0.
     1.00000    -0.02000   0.
     2.00000     0.06000   0.
     2.99000     0.18000   0.
     3.98000     0.34000   0.
     4.96000     0.50000   0.
     5.95000     0.66000   0.
     6.94000     0.82000   0.
     7.93000     0.98000   0.
     8.92000     1.11000   0.
     9.89000     1.34000   0.
    10.88000     1.51000   0.
    11.86000     1.68000   0.
    12.84000     1.91000   0.
    13.82000     2.07000   0.
    14.80000     2.27000   0.
    15.78000     2.47000   0.
    16.77000     2.61000   0.
    17.76000     2.77000   0.
    18.73000     3.02000   0.
    19.72000     3.12000   0.
    20.70000     3.32000   0.
    21.69000     3.51000   0.
    22.67000     3.66000   0.
    23.67000     3.76000   0.
    24.64000     3.99000   0.
    25.64000     4.07000   0.
    26.59000     4.39000   0.
    27.55000     4.65000   0.
    28.53000     4.88000   0.
    29.52000     4.98000   0.
    30.48000     5.26000   0.
    31.47000     5.43000   0.
    32.46000     5.58000   0.
    33.44000     5.75000   0.
    34.42000     5.93000   0.
    35.39000     6.20000   0.
    36.38000     6.32000   0.
    37.34000     6.58000   0.
    38.33000     6.75000   0.
    39.29000     7.04000   0.
    40.26000     7.25000   0.
    41.23000     7.51000   0.
    42.20000     7.74000   0.
    43.16000     8.05000   0.
    44.10000     8.37000   0.
    45.05000     8.70000   0.
    46.04000     8.78000   0.
    47.02000     8.98000   0.
    48.00000     9.17000   0.
    48.93000     9.56000   0.
    49.90000     9.80000   0.
    50.89000     9.88000   0.
    51.82000    10.26000   0.
    52.76000    10.59000   0.
    53.73000    10.85000   0.
    54.61000    11.32000   0.
    55.50000    11.78000   0.
    56.42000    12.18000   0.
    57.30000    12.65000   0.
    58.19000    13.11000   0.
    59.17000    13.29000   0.
    60.17000    13.35000   0.
    60.97000    13.94000   0.
    60.17000   -13.76000   0.
    60.97000   -13.16000   0.
     0.33300    -0.00700   0.
     0.66700    -0.01300   0.
     1.33300     0.00700   0.
     1.66700     0.03300   0.
     2.33000     0.10000   0.
     2.66000     0.14000   0.
     3.32000     0.23300   0.
     3.65000     0.28700   0.
     4.30700     0.39300   0.
     4.63300     0.44700   0.
     5.29000     0.55300   0.
     5.62000     0.60700   0.
     6.28000     0.71300   0.
     6.61000     0.76700   0.
     7.27000     0.87300   0.
     7.60000     0.92700   0.
     8.26000     1.02300   0.
     8.59000     1.06700   0.
     9.24300     1.18700   0.
     9.56700     1.26300   0.
    10.22000     1.39700   0.
    10.55000     1.45300   0.
    11.20700     1.56700   0.
    11.53300     1.62300   0.
    12.18700     1.75700   0.
    12.51300     1.83300   0.
    13.16700     1.96300   0.
    13.49300     2.01700   0.
    14.14700     2.13700   0.
    14.47300     2.20300   0.
    15.12700     2.33700   0.
    15.45300     2.40300   0.
    16.11000     2.51700   0.
    16.44000     2.56300   0.
    17.10000     2.66300   0.
    17.43000     2.71700   0.
    18.08300     2.85300   0.
    18.40700     2.93700   0.
    19.06000     3.05300   0.
    19.39000     3.08700   0.
    20.04700     3.18700   0.
    20.37300     3.25300   0.
    21.03000     3.38300   0.
    21.36000     3.44700   0.
    22.01700     3.56000   0.
    22.34300     3.61000   0.
    23.00300     3.69300   0.
    23.33700     3.72700   0.
    23.99300     3.83700   0.
    24.31700     3.91300   0.
    24.97300     4.01700   0.
    25.30700     4.04300   0.
    25.95700     4.17700   0.
    26.27300     4.28300   0.
    26.91000     4.47700   0.
    27.23000     4.56300   0.
    27.87700     4.72700   0.
    28.20300     4.80300   0.
    28.86000     4.91300   0.
    29.19000     4.94700   0.
    29.84000     5.07300   0.
    30.16000     5.16700   0.
    30.81000     5.31700   0.
    31.14000     5.37300   0.
    31.80000     5.48000   0.
    32.13000     5.53000   0.
    32.78700     5.63700   0.
    33.11300     5.69300   0.
    33.76700     5.81000   0.
    34.09300     5.87000   0.
    34.74300     6.02000   0.
    35.06700     6.11000   0.
    35.72000     6.24000   0.
    36.05000     6.28000   0.
    36.70000     6.40700   0.
    37.02000     6.49300   0.
    37.67000     6.63700   0.
    38.00000     6.69300   0.
    38.65000     6.84700   0.
    38.97000     6.94300   0.
    39.61300     7.11000   0.
    39.93700     7.18000   0.
    40.58300     7.33700   0.
    40.90700     7.42300   0.
    41.55300     7.58700   0.
    41.87700     7.66300   0.
    42.52000     7.84300   0.
    42.84000     7.94700   0.
    43.47300     8.15700   0.
    43.78700     8.26300   0.
    44.41700     8.48000   0.
    44.73300     8.59000   0.
    45.38000     8.72700   0.
    45.71000     8.75300   0.
    46.36700     8.84700   0.
    46.69300     8.91300   0.
    47.34700     9.04300   0.
    47.67300     9.10700   0.
    48.31000     9.30000   0.
    48.62000     9.43000   0.
    49.25300     9.64000   0.
    49.57700     9.72000   0.
    50.23000     9.82700   0.
    50.56000     9.85300   0.
    51.20000    10.00700   0.
    51.51000    10.13300   0.
    52.13300    10.37000   0.
    52.44700    10.48000   0.
    53.08300    10.67700   0.
    53.40700    10.76300   0.
    54.02300    11.00700   0.
    54.31700    11.16300   0.
    54.90700    11.47300   0.
    55.20300    11.62700   0.
    55.80700    11.91300   0.
    56.11300    12.04700   0.
    56.71300    12.33700   0.
    57.00700    12.49300   0.
    57.59700    12.80300   0.
    57.89300    12.95700   0.
    58.51700    13.17000   0.
    58.84300    13.23000   0.
    59.50300    13.31000   0.
    59.83700    13.33000   0.
    60.43700    13.54700   0.
    60.70300    13.74300   0.
    47.78000    -3.98000   0.
    30.65200    -7.37800   0.
     9.53100   -10.15100   0.
    19.07800    -7.21200   0.
    55.73600     1.38800   0.
    38.88700    -2.37800   0.
    25.65400    -2.46200   0.
    59.94000     7.58600   0.
     2.97600    -7.06900   0.
    32.08600    -1.12600   0.
    10.93900    -3.89800   0.
    49.09400     2.54600   0.
    43.29900     2.08300   0.
    15.99500    -2.75300   0.
    53.99500     6.34300   0.
    20.84600    -1.55400   0.
    38.67100   -11.15800   0.
    35.76800     1.63100   0.
     6.51500    -3.71100   0.
    28.41200     0.68300   0.
    55.34000    -6.61100   0.
    39.58300     3.04900   0.
    45.80600     4.94400   0.
     0.03800    -4.18200   0.
    14.34400    -7.29500   0.
    50.30900     6.05100   0.
    24.72300    -8.02700   0.
    45.90400   -10.95800   0.
    23.49100     0.37500   0.
    31.14200     2.39600   0.
    34.88000    -5.15100   0.
    56.59100     8.57800   0.
    13.11000    -1.35600   0.
    18.08500    -0.29000   0.
    59.50000    10.57200   0.
    42.67700    -6.52700   0.
     3.25400    -3.03800   0.
     8.83100    -1.89400   0.
    51.85100    -1.47100   0.
    42.06400     4.71100   0.
    43.14600    -2.14800   0.
    46.46900    -0.20600   0.
    29.29200    -3.89200   0.
    22.75100    -4.91600   0.
    33.65000     3.14800   0.
    16.91200   -11.14500   0.
     8.63200    -6.62500   0.
    37.18100     3.99900   0.
    57.51000     5.19500   0.
    52.39700     3.43700   0.
    15.48800    -0.25500   0.
    25.67000     1.59400   0.
    50.40900    -8.38900   0.
    47.65500     6.56400   0.
    21.02600     0.91100   0.
    35.38600    -1.78800   0.
    34.43000    -9.61200   0.
    38.71900    -6.37600   0.
    60.73000     1.32400   0.
    21.71100   -10.72800   0.
    12.91700   -12.95900   0.
    40.85000     0.15900   0.
    51.91200     7.84400   0.
    18.84500    -4.03300   0.
     5.14100   -11.06700   0.
     0.30200   -11.00300   0.
    27.84700   -10.87800   0.
    10.78800    -0.77500   0.
     5.15800    -1.81100   0.
    13.58300    -3.94200   0.
    58.09200    -2.61500   0.
    43.96700     6.10600   0.
    28.88900     2.76900   0.
    54.11600     8.67500   0.
    26.58800    -5.49700   0.
    38.32300     0.81900   0.
     1.33600    -2.12500   0.
    39.88000     5.09700   0.
    11.50900    -6.64200   0.
    16.49300    -5.45400   0.
    57.51600    10.58500   0.
    23.23100    -1.96500   0.
    45.74000     6.86700   0.
    33.55800     0.75800   0.
     7.07700    -1.07600   0.
    32.22300    -4.02500   0.
    45.88900     2.41800   0.
     5.83000    -6.50900   0.
    35.43000     4.26900   0.
    49.15700     7.63100   0.
    60.44600    -7.37000   0.
    54.26200   -10.94500   0.
    12.41600    -9.50000   0.
    46.36100    -7.26600   0.
    19.11000     1.30900   0.
    49.88700   -12.87900   0.
    28.03500    -1.75900   0.
    31.42000   -10.94000   0.
    51.24600    -4.93700   0.
     8.71800    -4.11100   0.
    22.44200     1.87400   0.
    42.26500   -10.09600   0.
    27.14400     2.81600   0.
    48.01500     4.41500   0.
    13.65900     0.34300   0.
    21.98700    -7.54600   0.
    16.84400     0.89500   0.
    30.55400     0.38600   0.
     7.13700    -8.90700   0.
    49.14700    -0.32200   0.
    43.98100     4.00200   0.
    25.37100    -0.45900   0.
    32.22200     3.87100   0.
    41.11100    -4.09200   0.
    24.13900     2.13400   0.
    16.81000    -8.01200   0.
    44.89400    -4.40800   0.
    55.55400     9.86500   0.
    54.96400     3.91500   0.
     3.38800    -1.36700   0.
    41.54000     2.83400   0.
    27.86600    -8.01500   0.
    17.87800    -2.20200   0.
    54.75000    -3.18400   0.
    51.17800     1.30400   0.
    36.92400    -3.73900   0.
    11.95500     0.17800   0.
[...]
POINT_DATA      5441
CELL_DATA     10507
SCALARS Resistivity(Ohm-m) double 1
LOOKUP_TABLE default
             5.61806            12.85934             3.67605             5.41011            12.77245             3.26342             9.58461             2.71506             2.67036             6.49705             2.89052             8.74247            26.12807             2.92937            26.99909             8.61109             4.82156            17.91216            17.06231            11.35293            16.93254             4.87726            11.69776            74.91541           288.02868            92.50721            25.99463             6.02270            16.32590            23.79273            36.51686            82.87583             0.96639           318.94206             8.18839             2.60401             4.44023           153.09521             8.20597            35.78210            10.82155           174.60373             3.54129            37.03358             4.27122            49.78382            10.41741           342.20648             9.82679            12.61717           211.14129            13.90351            26.24678            12.82357             2.43072             4.69473             9.35632             9.90794             4.68148             0.98300             9.27677             8.77154           383.04881             6.22637            10.18405            18.12093            37.25061             2.39976             7.34828           198.60958            81.08478             6.98263            13.09835           150.12999            12.91686             3.29780            10.56034            14.14211             5.82399            22.01640            12.20378            16.31383             8.63982             9.63739             5.97176             4.68794             3.09047           360.63192            12.73262            14.57279            34.28685            15.65887            51.64242             3.59250             4.29435            42.75042             2.75315             2.26158             3.04978             5.15315            52.32638             5.85126            11.82801           674.01379             7.86377             6.56095             3.39174           904.71829             4.54052           317.63987            36.05551             1.63100            21.68231            13.64215            21.12555             9.17483             3.32921            78.58720            36.82260            14.19398           124.52293             7.71629             7.85676            20.69794           128.53899            12.55084            15.36002           372.31565           523.02172            18.17069           224.89373            13.82273             6.68430            78.51023            14.68556            26.27707            11.43541            10.76865             4.46877             4.61910             3.63972            12.66328             2.50975            22.33880            17.52019             5.65853            16.20619             6.38179            12.59915            11.76350            32.77767             6.78976             4.11865             8.06199           374.91584             9.81530            10.69613             4.42070            38.93970             3.48155           553.76749            13.89320             4.24710             4.07225            18.11367             3.58282            42.82532             1.30215            18.50422             7.57062             4.44672             6.51600             7.11160           498.28658            74.06541            23.74273            65.92085             7.92043             3.57663           486.23345             5.41795             5.44502            49.29303            17.99169             9.41885            50.32274            10.86436             8.25912            16.22015             4.12995             5.39436            10.22000           220.23590            13.10340            10.92360           387.74551             4.76400           285.95542             1.84776             2.67141             8.86955            21.69608             7.37927            31.75656             6.44924            13.64684            13.31530            16.53575             6.68920            60.78045             8.02226             9.15062             6.82191           837.38178           488.91191             6.01422            37.34480             1.22444            16.76114             1.57620             6.90822            40.65218           391.32827            53.09764            13.24485            48.20673           150.42281             5.94413             9.95518           279.48589            46.04324             7.49717             6.67701             9.74978           141.59635            35.90819             2.33437             2.42261             1.01620            50.99226           568.16842            15.66506             3.62784            18.57582            29.19950             7.82238            58.03605             3.43263             2.64519            79.70825           164.36260            30.57898            34.03524             2.97081           443.96149             1.40218            12.01309             4.94573             9.84411             1.30775             3.01877             1.03956            64.42461             6.48679            26.29979            12.48530           108.01120            19.96341            40.40988           324.03152          1106.63040            78.30790            44.88612            20.91390             4.63502             9.02815            31.60094            41.49982             4.09836            62.40005           103.62742            20.12697            13.13440            12.06936             6.83114            30.05303            13.97982           295.10487             2.89247           148.83326             0.94281            48.40651            28.20819            37.20321            69.78990             9.93872           306.38529             7.62300             1.47144            38.46997            15.34406            11.80620             5.86692             3.13867             1.43075             7.81863           714.23701             5.63309             4.11236             3.60493          1644.32890             6.15237             6.45458             3.53419             1.96782             4.20303            14.41948             2.82242             7.94172             3.80544           317.26168             7.92974             6.11658            26.92761             8.99439             4.84263             6.83799             5.11385             6.51155             8.31741           127.09019           387.74632             2.31561           213.72952            38.73677            18.12043            37.83238             4.07909            17.86963             3.13722            22.10049             4.64128            37.56965            45.20666            32.27076             3.84807             5.88282             6.89790             6.72278            34.20869            59.16057             4.28470             6.72383            24.15622             2.37026           410.31102            45.04632             5.11114           168.08224            12.11638            29.80633             4.21648           310.24615            50.51031            12.13797             7.83265             2.75443             3.03794            11.73919             2.27398           145.67966            27.01358             5.05264             9.62857            11.26145            16.72317             5.35295             5.49889           171.75019             6.31504            45.03063             7.99641             7.28486           301.15715            58.16605           151.92741            36.47942            46.93427             3.64508             2.15943             4.69698            16.79183            11.04935             6.10184             6.27422            21.97662             1.19009             7.62091           186.34488             6.45452             9.65192             1.96393             4.95492             6.99250           126.65651             4.29185            19.82253            10.08973             1.33584             4.75882            13.52096             4.99684            13.97395            25.68097             1.03388            24.00949             5.10556            13.88324            39.03942           201.82268            25.46002           259.46899             2.43344             7.29371             6.01221            58.44785             3.06306             3.98407           693.82881             8.10742            18.12211           214.45055            27.74319             7.00616            27.53677            31.45630             8.24240             2.91880            21.99323            17.41466            58.65911             5.33140            20.83981             5.44207             5.34070           145.90203           560.23216            27.61755             4.79712             8.08950             4.53322            24.43157             3.24474           421.86064             5.91114            32.74729             6.90239            15.34291           138.16035             3.12033             3.03469            42.84216          1107.02170             3.48535            78.31442            47.96941             8.81211            12.22525            43.85762           166.48367            28.42643             3.83788             7.39836             7.52189             6.32709           281.89510             5.54747             8.33872             2.79039           432.73642            19.50370            35.54768           352.11307             1.48032            50.56585            15.58437             6.08842            39.23333             2.48402            23.58929            20.65620            63.63192            14.02606             3.83136            16.31100             7.04982            34.07714            13.29915             6.27992           688.80742           364.62366            88.51250            65.51497             7.33324           336.16790             2.05895            15.54368            14.83342            17.11952            15.65736            10.43529            83.38788             6.06443             5.84816             6.94345             8.14083            28.06899            29.41224            16.68116            83.98513             5.13566             7.21647           154.07652            17.20568             5.09361           267.96724             2.88992             1.70009            17.72322             6.29217            15.82073            18.84758             6.23521           150.64989             4.75962             5.25040             4.17031             5.25039             4.46562           181.29778             4.76353            53.93348             4.97447            13.63884            89.78958           206.09997            85.38958             4.89665            13.55778            11.59820             2.26596             6.91644             2.27958            10.17468             9.89868            14.62408             5.29326            23.64064            31.87309            79.26232           269.85922            30.72402             7.94805             6.13755           340.60521             4.16820             8.56678            33.09182           417.68441             9.55089             3.78357             8.70249            41.75580            51.94424           277.46647             2.78382             4.47429            34.00588             4.55341             4.24650             6.61417             8.45499            55.21392           152.90377             9.41812           328.80813            25.35241            36.78454            21.32205             1.50318             9.43617             7.75675             4.64682            19.23308            59.12005             5.19542             9.46571             6.01894            22.27617            13.54665             2.15874             4.36636             4.89356             0.90039             2.50528             6.66469          1261.17379             5.05077            27.68278             4.24096             2.26993             2.73516           779.50159             7.24238             4.73079             5.15965            21.41121           171.12024             5.09904             2.35260             7.76301           217.55546             3.66775            11.05016            38.10087            11.93818            33.75497            42.41936            30.62905            43.08979             3.82049            12.26447             8.12613             6.25797             3.52813            79.13430            41.75507             8.19507             5.96636             1.89012           266.41401           900.10895             8.53660            17.54039            17.27617             7.38066             6.15108            24.13457            35.17358            43.47705            25.78645            19.18527            11.11136             3.99134             1.73288             9.12192             2.03616             6.92300            35.49186            23.95874             0.83246             4.18848             1.92498            10.74250           182.36914             4.48679             0.83675            24.25376             3.10886            11.31408             1.74137            39.88850            13.41186            10.14440             6.96494           199.51816             5.00551             6.23651             7.08050             8.06261           132.44358            49.28890           260.32443            43.65890             2.03606             7.63907           419.81978           830.23549            11.18846             3.69731             8.99270             3.24517             3.19257            70.21529           798.28458            22.64302             5.01065            22.59479             4.65687             1.56651           750.80529            18.11950           998.03957            18.23260             5.87274            12.52323             5.31804            24.70485             1.48488            30.72831            25.33896             7.88558            12.35607             9.29681             8.61403            12.49702            13.02718            68.28599             3.89788            80.22897            35.93419            58.56246             5.21267             1.92402             9.86106           709.99870           405.98481             0.99540            23.06951             5.90841            11.16570            35.60533             6.54248            11.89853            22.85273            17.82189             4.86551           732.31133           389.58595            44.88624             2.39265             4.75005             3.82472            16.07215            16.26137             4.43959            39.78475            12.41083             6.41840            70.27497             9.96735           124.56723            28.06546             8.37584             5.22531            67.03358             3.99021           440.19357             7.20383             2.05279            31.51027             6.38751             7.67683            68.99902             3.65575             3.99879             9.69847            25.59944            15.20707             2.08480            12.55676             8.60799            12.31353             3.90860             7.79061           636.61901            14.13229            17.13568           266.12119             6.12223             2.15808            52.47862            15.92440             2.60660             4.06531            12.22725             6.95124            12.25993             2.42221            52.06392           150.72087             3.42008             7.53709            18.60165             5.43877            12.33770           708.71145             7.88010             6.97814            40.51375             6.67583            11.41726            11.58915             4.80699            27.05250             2.26873             3.48560             6.65376            54.92776             4.25310           327.12117            14.66232             5.60633             2.23457            32.34592             2.03735             7.15009            26.55657             2.41192             1.55848             4.51016            12.23291             4.57901            15.25500             6.39071            14.94400             4.07822            33.74124             3.32166             7.14761            39.88083            51.19755             6.52330            38.89173            15.72516            27.11147             3.18614            19.30628            14.96198            73.24549             3.11137            18.81589             2.13703            41.56881           781.98295             0.85637             5.37714             2.31690             2.57803            25.09552           260.98285            47.77670             6.60808            99.11896             2.15338            18.87158            98.99708            15.40244            13.15933             2.40818            10.51554           904.55166             1.80412             4.29183             7.60392             2.81260            11.62949             4.45339             5.03223             7.08655            10.97439            16.33796             9.74302            13.39693             5.67001             3.16428            33.37742            15.36496            16.51808             5.88379             2.53386             2.02883             7.01070             9.45840            24.27187             2.39125             2.77082            42.87772            13.84742             2.97251            11.58712            16.49409            17.96076            13.64619            74.16040             8.42293            22.87624             3.30337            10.04010            12.67174             3.53231             7.78935            29.65465            26.16247            17.48333             9.62251             6.31371             4.21611            21.17560           409.78133             5.17335             5.32925             8.81515           528.60128           375.00716             5.74847             5.69195             4.47146            33.14125            11.22384             6.04223             2.61243             9.32712             4.39025            13.36428             1.13902            20.49562             7.78188             1.30819            35.41608          2033.02501             4.88712             4.45898             4.82354            86.31670           743.66588            31.55258             2.02970            35.29805             6.28482            57.87212             5.94109             4.47388             4.67531           230.12776             2.16843             8.29706           290.59567            23.64428             5.46737           316.23762             1.12536             3.63656            98.08518             7.19682            19.41447             1.18956             4.85386            17.50503            30.50336             6.19939             2.22159            10.02877            27.83356             5.96152             7.32411             2.11202            40.40039            19.16840            19.47768             4.45709            22.29202             6.04257           980.83127            30.46472            98.46450            18.13381             2.22637             6.33118             4.01923           180.37889             3.85557            18.36093            13.69268             3.85662             2.18701             4.35865            11.94687             4.15218           397.49621            16.20290            22.06649            26.75218             6.13577             3.437