# vtk DataFile Version 3.0
Output from R2
ASCII
DATASET UNSTRUCTURED_GRID
POINTS       1414 double
     0.00000  2968.10000   0.
     1.54000  2966.60000   0.
     3.08000  2964.90000   0.
     4.61000  2964.10000   0.
     6.15000  2963.30000   0.
     7.69000  2962.60000   0.
     9.23000  2961.50000   0.
    10.76000  2960.70000   0.
    12.30000  2960.00000   0.
    13.84000  2959.30000   0.
    15.38000  2958.70000   0.
    16.91000  2958.10000   0.
    18.45000  2957.30000   0.
    19.99000  2956.60000   0.
    21.52000  2955.80000   0.
    23.06000  2955.00000   0.
    24.60000  2954.30000   0.
    26.14000  2953.50000   0.
    27.68000  2952.80000   0.
    29.21000  2951.90000   0.
    30.75000  2951.10000   0.
    32.29000  2950.20000   0.
    33.83000  2949.50000   0.
    35.36000  2948.70000   0.
    36.90000  2948.10000   0.
    38.44000  2947.30000   0.
    39.98000  2946.70000   0.
    41.51000  2946.10000   0.
    43.05000  2945.50000   0.
    44.59000  2945.10000   0.
    46.13000  2944.50000   0.
    47.66000  2944.10000   0.
    49.20000  2943.60000   0.
    50.74000  2943.40000   0.
    52.28000  2943.00000   0.
    53.81000  2942.50000   0.
    55.35000  2942.10000   0.
    56.89000  2941.60000   0.
    58.43000  2941.00000   0.
    59.96000  2940.60000   0.
    61.50000  2940.10000   0.
    63.04000  2939.50000   0.
    64.58000  2939.10000   0.
    66.11000  2939.20000   0.
    67.65000  2939.20000   0.
    69.19000  2939.10000   0.
    70.73000  2938.90000   0.
    72.26000  2938.60000   0.
    73.80000  2938.30000   0.
    75.34000  2938.50000   0.
    76.88000  2938.70000   0.
    78.41000  2938.60000   0.
    79.95000  2938.80000   0.
    81.49000  2938.90000   0.
    83.03000  2939.10000   0.
    84.56000  2939.10000   0.
     3.42000  2957.55000   0.
     8.97000  2954.51000   0.
    14.52000  2951.86000   0.
    20.07000  2949.38000   0.
    25.63000  2946.59000   0.
    31.18000  2943.67000   0.
    36.73000  2940.99000   0.
    42.28000  2938.62000   0.
    47.83000  2936.87000   0.
    53.39000  2935.46000   0.
    58.94000  2933.69000   0.
    64.49000  2931.95000   0.
    70.04000  2931.81000   0.
    75.60000  2931.36000   0.
    81.15000  2931.70000   0.
     0.51333  2967.60000   0.
     1.02667  2967.10000   0.
     2.05333  2966.03333   0.
     2.56667  2965.46667   0.
     3.59000  2964.63333   0.
     4.10000  2964.36667   0.
     5.12333  2963.83333   0.
     5.63667  2963.56667   0.
     6.66333  2963.06667   0.
     7.17667  2962.83333   0.
     8.20333  2962.23333   0.
     8.71667  2961.86667   0.
     9.74000  2961.23333   0.
    10.25000  2960.96667   0.
    11.27333  2960.46667   0.
    11.78667  2960.23333   0.
    12.81333  2959.76667   0.
    13.32667  2959.53333   0.
    14.35333  2959.10000   0.
    14.86667  2958.90000   0.
    15.89000  2958.50000   0.
    16.40000  2958.30000   0.
    17.42333  2957.83333   0.
    17.93667  2957.56667   0.
    18.96333  2957.06667   0.
    19.47667  2956.83333   0.
    20.50000  2956.33333   0.
    21.01000  2956.06667   0.
    22.03333  2955.53333   0.
    22.54667  2955.26667   0.
    23.57333  2954.76667   0.
    24.08667  2954.53333   0.
    25.11333  2954.03333   0.
    25.62667  2953.76667   0.
    26.65333  2953.26667   0.
    27.16667  2953.03333   0.
    28.19000  2952.50000   0.
    28.70000  2952.20000   0.
    29.72333  2951.63333   0.
    30.23667  2951.36667   0.
    31.26333  2950.80000   0.
    31.77667  2950.50000   0.
    32.80333  2949.96667   0.
    33.31667  2949.73333   0.
    34.34000  2949.23333   0.
    34.85000  2948.96667   0.
    35.87333  2948.50000   0.
    36.38667  2948.30000   0.
    37.41333  2947.83333   0.
    37.92667  2947.56667   0.
    38.95333  2947.10000   0.
    39.46667  2946.90000   0.
    40.49000  2946.50000   0.
    41.00000  2946.30000   0.
    42.02333  2945.90000   0.
    42.53667  2945.70000   0.
    43.56333  2945.36667   0.
    44.07667  2945.23333   0.
    45.10333  2944.90000   0.
    45.61667  2944.70000   0.
    46.64000  2944.36667   0.
    47.15000  2944.23333   0.
    48.17333  2943.93333   0.
    48.68667  2943.76667   0.
    49.71333  2943.53333   0.
    50.22667  2943.46667   0.
    51.25333  2943.26667   0.
    51.76667  2943.13333   0.
    52.79000  2942.83333   0.
    53.30000  2942.66667   0.
    54.32333  2942.36667   0.
    54.83667  2942.23333   0.
    55.86333  2941.93333   0.
    56.37667  2941.76667   0.
    57.40333  2941.40000   0.
    57.91667  2941.20000   0.
    58.94000  2940.86667   0.
    59.45000  2940.73333   0.
    60.47333  2940.43333   0.
    60.98667  2940.26667   0.
    62.01333  2939.90000   0.
    62.52667  2939.70000   0.
    63.55333  2939.36667   0.
    64.06667  2939.23333   0.
    65.34500  2939.15000   0.
    66.88000  2939.20000   0.
    68.42000  2939.15000   0.
    69.70333  2939.03333   0.
    70.21667  2938.96667   0.
    71.24000  2938.80000   0.
    71.75000  2938.70000   0.
    72.77333  2938.50000   0.
    73.28667  2938.40000   0.
    74.31333  2938.36667   0.
    74.82667  2938.43333   0.
    75.85333  2938.56667   0.
    76.36667  2938.63333   0.
    77.64500  2938.65000   0.
    78.92333  2938.66667   0.
    79.43667  2938.73333   0.
    80.72000  2938.85000   0.
    82.00333  2938.96667   0.
    82.51667  2939.03333   0.
    83.79500  2939.10000   0.
     0.08400  2959.57200   0.
     1.19600  2958.89800   0.
     2.30800  2958.22400   0.
     4.53000  2956.94200   0.
     5.64000  2956.33400   0.
     6.75000  2955.72600   0.
     7.86000  2955.11800   0.
    10.35750  2953.84750   0.
    11.74500  2953.18500   0.
    13.13250  2952.52250   0.
    15.90750  2951.24000   0.
    17.29500  2950.62000   0.
    18.68250  2950.00000   0.
    21.18200  2948.82200   0.
    22.29400  2948.26400   0.
    23.40600  2947.70600   0.
    24.51800  2947.14800   0.
    26.74000  2946.00600   0.
    27.85000  2945.42200   0.
    28.96000  2944.83800   0.
    30.07000  2944.25400   0.
    32.56750  2943.00000   0.
    33.95500  2942.33000   0.
    35.34250  2941.66000   0.
    38.11750  2940.39750   0.
    39.50500  2939.80500   0.
    40.89250  2939.21250   0.
    43.66750  2938.18250   0.
    45.05500  2937.74500   0.
    46.44250  2937.30750   0.
    49.22000  2936.51750   0.
    50.61000  2936.16500   0.
    52.00000  2935.81250   0.
    54.77750  2935.01750   0.
    56.16500  2934.57500   0.
    57.55250  2934.13250   0.
    60.32750  2933.25500   0.
    61.71500  2932.82000   0.
    63.10250  2932.38500   0.
    65.87750  2931.91500   0.
    67.26500  2931.88000   0.
    68.65250  2931.84500   0.
    71.43000  2931.69750   0.
    72.82000  2931.58500   0.
    74.21000  2931.47250   0.
    76.98750  2931.44500   0.
    78.37500  2931.53000   0.
    79.76250  2931.61500   0.
    82.53750  2931.75500   0.
    83.92500  2931.81000   0.
     6.60134  2937.05984   0.
    20.80435  2932.52560   0.
     3.78758  2946.36592   0.
    15.48523  2940.98228   0.
    29.30091  2934.50364   0.
    23.90594  2939.46561   0.
    40.87322  2931.62711   0.
     1.03219  2951.87344   0.
    10.83406  2946.32292   0.
    20.42668  2943.42459   0.
    48.80952  2930.83467   0.
    35.50309  2935.49258   0.
     7.54365  2949.73854   0.
    28.57967  2939.84283   0.
    15.90963  2945.83181   0.
    44.30452  2933.27820   0.
    -0.12722  2955.42655   0.
    24.47411  2943.04615   0.
     4.45051  2952.86019   0.
    40.01017  2935.22543   0.
    52.75593  2931.58993   0.
    13.75183  2934.27842   0.
    32.31862  2938.44653   0.
     0.40990  2931.04902   0.
    19.20708  2946.27332   0.
    57.19103  2930.55709   0.
    -0.97178  2947.27328   0.
    19.39705  2939.49643   0.
    11.08068  2950.12444   0.
    32.86215  2930.47012   0.
     7.41320  2941.82707   0.
    13.76382  2948.77946   0.
    27.17579  2942.79365   0.
     7.27112  2952.68663   0.
     2.71547  2954.94653   0.
    22.91159  2945.17994   0.
     2.00816  2941.86911   0.
    24.73355  2934.79062   0.
    47.86753  2934.00196   0.
    50.62083  2933.29089   0.
    60.15732  2930.28185   0.
    37.65425  2937.53830   0.
    44.64836  2929.77041   0.
    10.93416  2939.02064   0.
     4.26476  2949.76242   0.
    36.78915  2931.78219   0.
     7.36345  2946.13476   0.
    30.92470  2941.06806   0.
     6.19921  2931.10091   0.
    35.16618  2938.51604   0.
    16.36294  2929.87801   0.
    13.43632  2943.77014   0.
    42.64967  2935.50406   0.
    26.89596  2931.23775   0.
     1.59760  2936.73753   0.
    17.19200  2948.13905   0.
    -0.61497  2957.60981   0.
    26.49360  2937.36117   0.
     9.56799  2951.50953   0.
    17.55858  2943.77119   0.
    55.26825  2932.33039   0.
    22.03247  2936.46128   0.
    16.10828  2937.24515   0.
    22.48452  2941.40733   0.
    20.86327  2946.43955   0.
    29.71126  2937.35408   0.
    32.14062  2935.59882   0.
    45.26358  2935.44707   0.
    29.19256  2942.39482   0.
    25.22337  2944.48902   0.
    25.77440  2940.40763   0.
     5.12787  2951.33100   0.
     9.72036  2943.07255   0.
     0.63027  2944.64860   0.
     5.15669  2954.13690   0.
    33.80274  2940.56791   0.
     1.57076  2956.41210   0.
     9.31000  2947.97928   0.
     9.87726  2933.53233   0.
    53.60824  2932.85261   0.
    40.63972  2936.89193   0.
    13.47285  2946.23828   0.
    37.68088  2934.75035   0.
    46.32767  2931.88185   0.
    18.64740  2941.16071   0.
    13.09413  2950.32980   0.
    18.01744  2935.92389   0.
     0.55332  2948.73049   0.
     5.35766  2947.55011   0.
    42.44669  2933.52960   0.
    57.75733  2932.24094   0.
    23.68300  2931.83870   0.
    19.94397  2947.74183   0.
    61.81887  2931.15328   0.
[...]
POINT_DATA      1414
CELL_DATA      2568
SCALARS Resistivity(ohm.m) double 1
LOOKUP_TABLE default
          1189.75778          1792.74082          2233.84689          1164.17935           537.07016          2403.11037          1047.11910          1332.10228          1648.16956          2122.36182           794.61951          2072.31798           638.23123          2680.54586          2554.15102          1902.61940          1602.25946           368.47396           536.91830          2771.10257           925.57600          1904.81357          1287.24200           639.33836          1954.74161           589.53124           290.48688          2403.09903          2247.34385          2292.49818           565.43528           580.06096          1698.70488           400.42658           398.97757          1680.18249           738.29189          1039.56354          1247.85053          1478.50547          1823.18581           737.56367           547.52627          2462.90815           394.44855           423.40804          3406.68361           845.32538           680.40409           718.91492          3233.95366          1931.97131           972.91771          1597.30616          2462.07456          1024.12109           421.24744          2304.30778           427.89357          1046.75772           559.40353          2370.61643           360.61354          1831.30547           303.35793          1554.28904          2329.32942          2075.37675           337.48390           862.47966           553.19961           721.28412          2163.81459           468.48862           307.14230          3019.66435          1408.78816           373.97015           313.38267          3329.07547          3266.75983          1256.45000           422.36314           453.49436          2229.70470           932.54766           394.33675          2122.71928           712.57243          1930.27643          1108.67693           425.98707          2343.68633           327.36886          1903.28722          2127.28793           465.93224          1164.00880          2403.48643          1082.29194          1548.69494           608.00321           742.77421           760.43359           903.57449          1705.09085           547.73602           932.69473          2342.05457          1233.64804           346.89841           862.41260          2636.81092          1804.70034          2084.45553          1307.94801           801.14916          1527.88186           525.16954           369.76973          2603.93053          1388.30497          3322.95788           822.51055           436.94019          2256.97895          2496.76613          3435.10379          1796.03961          1229.56813          2185.03774          1159.75735          1245.14709          2639.07235           869.31239          2825.74210           335.62109          1687.06889          1098.96311          1358.75363          1619.03620           575.77927           728.49866          1106.64951          1687.76453           651.95596           493.73044          1477.12551          2070.00376           634.38592          2342.61109          1997.64968           952.31124           741.84122          2718.66416           291.60835          1488.69413           381.71182          2328.14882          1289.45014          1098.47637           584.44452          2308.09815           496.68486          2286.76805           546.97257          1274.87292          1830.36548          1921.92454          1771.62078           745.46391           834.74296           811.07261           311.96931           431.39074           801.45719           950.41829          3376.35968          2665.83726          1123.12297          2588.34483          1246.80148          2110.07152           844.93905           590.59548          1075.45444          1002.40625           775.40910           785.39812          2861.87462          1232.42930          2846.65234           714.52543          3170.17135           311.92996           600.92535          3155.68178          2160.57919          1244.78888           477.09227           287.23213           732.68215          1770.12095          1452.29207          1777.26397          1124.66555          3529.84783          2414.44094           449.52585          2312.08606          1324.26626           689.26944           463.92031           383.23669           650.71809          1216.23848          2579.76576           532.32229          1242.62603           608.50996           737.19960          1270.15929          1124.90580           377.95410           703.13307           773.70219           343.84045           653.97108          1285.29775           354.61992           866.51706          2163.02107          1410.17075          2827.18267          2881.42561          1553.96147          2982.28884          1288.49589          1330.38055          1371.11275          3000.86929           705.29759          1075.47628           483.90964          2981.45617           285.34859          1912.63924           525.89415           360.66264          2205.26243           280.36282          2092.11668          1645.38029           816.13920          2143.92037          1004.48807           712.04768           853.63272           769.40682          2713.15743           577.55059          2272.88274           399.12628           517.35853           450.70002          1542.62887           410.76085          2329.37344          1033.20420          2395.35121           849.06546          2167.59966          2415.70047          2481.43632           482.52882          1626.73537          2310.55591           434.97063           743.05787           721.07809           419.79238          1388.55651           304.06028           994.88195           859.42786          2254.30965           549.41819          2909.02185           673.01928           400.13500           775.35843           321.98947          2745.07668           782.30556          2064.95389          2555.06504          1384.46749           617.03722           526.26343           770.56783           757.27688           473.67906          3104.96729          2770.93083           379.93825          1859.26239          1320.65212          1539.22884          1978.72187           340.04152           822.44137           608.80987           341.86468          2423.54975           760.37228           354.74478           525.30269           954.86026          2613.50765           509.73728          3161.05365           392.55920           841.47112           393.68521           637.14351          1227.54827           481.93633          1391.17882          1128.67989          3096.22775          1805.67670          2322.30139           605.89764          1488.55793           373.03448           418.59611           706.46390           666.44690          3172.78944           647.72292          2431.45382           349.06072          2280.18419           408.85923           667.21555          1850.84996          1168.05365           962.78581           457.78915          2444.41318           369.77947          2736.44604           913.59056           364.52127           529.08335          2294.83247           555.28796          1520.20958           368.87265           450.06120           759.22393          1518.44362           877.98761           617.84472          1356.99384           580.16866           368.91807          2494.57752          1713.56083          2572.95765           395.87993          1306.51255          1414.93253           807.67294           332.09032          2953.48374           405.33343           490.39463           381.83494          2198.01106          1367.68242           354.30915          1793.33482          2915.11817           278.55397          1348.20097           619.45534          1224.69469           486.24053          1404.46483           828.70875           379.71613          1431.08495          1154.85434           366.92474           786.74182           671.58848          1129.65725          1766.20317           936.37701           574.14423           739.06851          1345.18808          1431.70124          1312.09122           976.67110           616.59153          1050.27614          2458.07644          1624.59376          1458.41571          2480.71094           896.73906           634.52600           844.69076          3049.59403           743.54623           783.65105           747.72214          1700.49812           896.07231           422.78480          2515.55297          1330.82539          1269.86806           324.71928          1528.77561           601.00622          1405.69023           417.77517          1317.76079           396.13378           356.33090          2091.48687          1061.18857          1475.15000          1471.29096           697.68361          1942.97772          1059.78843          3475.22364           647.80386          1213.33430          2316.03125          1189.87736          1080.05172          1288.27322          1236.68287          3645.97685           972.58382          3357.59424          1547.42242          1328.21340           963.66629          1596.17734           909.44384          2294.92617          1038.29482          1263.72764           374.81262          1980.15608          1336.45884          1006.54735          1140.31225          2275.88788           927.95373           809.03760          1019.03100          1683.11493          1613.82708           710.12473          1878.81712           944.28144           322.09656          2000.53931          3451.66104           946.84698           411.47014          1392.57288           785.15105           784.85344          2037.74866           596.13756           462.83334          2216.26610          3349.07870          1093.32586           341.52753           763.59739           858.25979          1296.79903          1012.28074          1141.47294          1506.83848           925.41466          1455.07486           887.02425          1098.53466          2464.52216          1865.87990           719.50709           322.81981           625.23360          1251.16881           886.77291          1209.51600          3232.02934          1274.97891           409.24583           553.46461          1131.66242          1213.46791           920.53717           474.68323          2981.54197          1383.67070           427.19940          2996.78027          2664.68015           380.08078          1371.16867          1268.96792          1143.00888          1078.27092          1133.95949           650.56111          1496.73151          1433.61712          1458.59496          1085.13600           825.77128          1673.41158           371.90518           999.14240           686.39845           374.67191           842.51154          1714.28890          1149.02457          1051.53270           377.88201           461.95642          1714.34221          1183.90928          3768.72218          4769.28239          2959.46359          1828.31748          1957.39335          1901.27939          3117.97525          4708.94244           543.47846          4036.54716           289.59646           949.88238          1213.07935           649.26971          3277.09201          5158.57085          1094.67623           359.86581          2078.66258          2653.87814           590.34374           786.44169          1402.41623          4048.75725          1305.37400          2103.19521           904.46437           628.57660          1144.66913          1722.98735           521.86174          3519.26561           492.19579          1179.64570          4855.47939          3534.74072          1415.52942          5520.19705           293.98394           916.81761           460.49033          1624.63280          3269.24987          1478.93124          2876.25524          1796.67192          2645.63231           571.64924          1386.86438          1042.60762          1544.38966          8747.29198          2957.10761          1053.67121          4373.01539          3773.02390           552.98140           644.62966          5208.06306          2737.19113          3884.48799          5082.39888          1478.47607           781.93626           592.65921           456.27579           741.55735          3762.18348          1326.92176           893.00591          1693.75816           318.86416           931.74867          1556.26001          3548.99011           998.52731           699.44945           862.32742           490.21301          1364.28339          1367.00892           820.39999          2672.84688          2439.77669          3579.17016          2730.08397          5055.42338          4719.13232          1939.12394           517.99747          3689.19771          1107.26979          1390.14338           649.51727          1442.47306           614.07273           247.49859          6583.45999          4829.66487          1445.10179          1496.48399          3009.44407          1948.25192          2375.90105          2379.88328           817.57178          1231.05857           507.24426          1018.51159           416.29835           513.93721           643.59518           596.86337          2108.09424          4643.81268          2886.37381          1274.29891          1881.52874          1348.87675          1302.72566          7270.65424          4398.08969          1565.24813           432.31709           553.74506          5254.79318           615.34260          3291.99113          3744.31663           910.76694          2219.92879           632.96991           780.45436           915.64487          2229.92733          2148.32130          2156.01493           627.35938           485.09922           994.12023           368.54007           537.22605           381.24685          2965.61082          5102.86568           553.72589          3103.84971           793.38873          2530.39125          1024.97074           760.23134           566.88770           579.40984           601.99916          2170.39360           691.67415          1140.59331           638.07973          2180.13760          2103.64242          3991.43099          2473.19751           418.74295           475.83314           329.81026          2505.59966           582.82211           656.30447          1336.30711          2518.46413          1056.35221           594.92437           508.77963          1208.64610           733.81807          1404.70317          1092.22919           577.78013           491.42133           533.18532          2948.44522          1426.22214           914.64732          7428.94857           908.26074           776.74256          1116.61299          1521.50641          2450.86932          1488.18940          1292.86257          1519.48063          2378.00116           666.66197          5989.34801          1050.83917          3091.36379           701.76218          1005.75556          3586.34110          2550.95237           614.01724          1072.28558          2745.37364           552.69570           489.05274          1113.31701          2626.24058          5933.50320          1262.29470          6246.28728          1161.77121          1419.17415          1493.44266          1002.63099           427.97929           461.63024          2524.54914           809.36700          3543.46548           637.81087          2724.40060           695.64016           480.93007          1063.83775          1666.50449          2664.78072          4236.72797          2738.89735          1225.56745          1640.45551          1041.16090          4280.27843          6448.50924          2307.00858           844.35390          2657.76760           579.90210           970.73815           683.97699          2073.25568           978.06623           803.96938           537.29807           588.42555          3171.96823           928.17085           562.04032          5263.64104          3242.56135          1760.51176          1133.05519          8783.43860           664.99162          2415.64104          2911.67450          1633.51696          1013.73719          2797.88167          6241.68832          1761.22379           336.73322           547.17178          1106.81330          1586.23265          1538.65218           626.38099           546.17366          6318.13005           468.70949           955.60300          1531.73109          3214.33872          5452.81116           428.66523          1405.56723           774.71946          1241.68514          1806.68151           684.64052           972.09916          1279.36503           654.23743           644.93337           417.31295           846.97950          3248.03985           448.12708          3418.09736          1697.82268          1874.20432          1106.45758          1326.33857          1659.09248           423.26950          2793.02523          1324.22973          2225.77502          1724.55494          1666.52613          5935.60834           660.56963          4786.22986           480.09602           566.54038          1517.62396           982.51499          6661.93967          3237.24697           733.36349          1269.29364          3349.96632          2945.25444           593.72849          3782.49589          1437.89417          2470.40179           832.02250          3198.79988          3062.58181           510.36013          3111.90275          3446.32337          2242.97973          5805.52097           591.70627           809.45172           977.89296          2199.52955           541.02090          8596.12268          3801.70879           587.17257          1251.31856          1546.46840          1800.43488           602.33468           981.25454         12430.00215           632.97755          1806.50423          1203.60108           522.80860           638.81548          1813.63234          5047.53276          5324.77315          1618.21988          1767.38527          2101.43536          4006.72267           607.87179          1056.83189          1550.34798          1538.66931          5092.78852           534.50127           977.91637          2245.95509           744.66951          3169.28452          2337.82266          6054.66930          2795.02171           867.28270           930.18158           596.22034          5548.37750          6514.00185          1760.79120           262.54576           390.20950           723.12207           719.28952          5506.27724          1144.48501          1818.38414          2623.11199          2223.84356          4956.80937          6161.38552           380.87611           464.02464           713.43466           912.88461           486.30989          4303.42076          3393.11235          1163.11144           832.54237           914.27154          1892.10384          3026.26916          1787.11557          1532.48148           806.29251          3047.07085          7940.14865           539.97017           481.68897          2008.77018          7143.71824          1550.83724          2855.67082          5423.08537           736.22200          1537.67845          4102.12667           475.10387          1329.38730           771.22148          4691.43724           956.64172          1908.34516          2728.10760          5245.35818          4876.38026          5320.33405          4197.26030          3666.89771          1356.37100           546.76740          3704.33240         10061.19558           649.03485          1812.77585          2616.93215           304.96052          2220.31128          2824.89451          2108.02539           351.52698          3963.72997           870.24212          2782.31102          3957.68524          1536.78525           479.91894          2337.44871          2781.77388          4812.58228          5283.97532          4842.33877           633.80507           621.22740          1066.96816          5266.47917           827.42167          2264.89738           475.72190           565.359