# vtk DataFile Version 3.0
Output from R2
ASCII
DATASET UNSTRUCTURED_GRID
POINTS       5441 double
     0.00000     0.00000   0.
     1.00000    -0.02000   0.
     2.00000     0.06000   0.
     2.99000     0.18000   0.
     3.98000     0.34000   0.
     4.96000     0.50000   0.
     5.95000     0.66000   0.
     6.94000     0.82000   0.
     7.93000     0.98000   0.
     8.92000     1.11000   0.
     9.89000     1.34000   0.
    10.88000     1.51000   0.
    11.86000     1.68000   0.
    12.84000     1.91000   0.
    13.82000     2.07000   0.
    14.80000     2.27000   0.
    15.78000     2.47000   0.
    16.77000     2.61000   0.
    17.76000     2.77000   0.
    18.73000     3.02000   0.
    19.72000     3.12000   0.
    20.70000     3.32000   0.
    21.69000     3.51000   0.
    22.67000     3.66000   0.
    23.67000     3.76000   0.
    24.64000     3.99000   0.
    25.64000     4.07000   0.
    26.59000     4.39000   0.
    27.55000     4.65000   0.
    28.53000     4.88000   0.
    29.52000     4.98000   0.
    30.48000     5.26000   0.
    31.47000     5.43000   0.
    32.46000     5.58000   0.
    33.44000     5.75000   0.
    34.42000     5.93000   0.
    35.39000     6.20000   0.
    36.38000     6.32000   0.
    37.34000     6.58000   0.
    38.33000     6.75000   0.
    39.29000     7.04000   0.
    40.26000     7.25000   0.
    41.23000     7.51000   0.
    42.20000     7.74000   0.
    43.16000     8.05000   0.
    44.10000     8.37000   0.
    45.05000     8.70000   0.
    46.04000     8.78000   0.
    47.02000     8.98000   0.
    48.00000     9.17000   0.
    48.93000     9.56000   0.
    49.90000     9.80000   0.
    50.89000     9.88000   0.
    51.82000    10.26000   0.
    52.76000    10.59000   0.
    53.73000    10.85000   0.
    54.61000    11.32000   0.
    55.50000    11.78000   0.
    56.42000    12.18000   0.
    57.30000    12.65000   0.
    58.19000    13.11000   0.
    59.17000    13.29000   0.
    60.17000    13.35000   0.
    60.97000    13.94000   0.
    60.17000   -13.76000   0.
    60.97000   -13.16000   0.
     0.33300    -0.00700   0.
     0.66700    -0.01300   0.
     1.33300     0.00700   0.
     1.66700     0.03300   0.
     2.33000     0.10000   0.
     2.66000     0.14000   0.
     3.32000     0.23300   0.
     3.65000     0.28700   0.
     4.30700     0.39300   0.
     4.63300     0.44700   0.
     5.29000     0.55300   0.
     5.62000     0.60700   0.
     6.28000     0.71300   0.
     6.61000     0.76700   0.
     7.27000     0.87300   0.
     7.60000     0.92700   0.
     8.26000     1.02300   0.
     8.59000     1.06700   0.
     9.24300     1.18700   0.
     9.56700     1.26300   0.
    10.22000     1.39700   0.
    10.55000     1.45300   0.
    11.20700     1.56700   0.
    11.53300     1.62300   0.
    12.18700     1.75700   0.
    12.51300     1.83300   0.
    13.16700     1.96300   0.
    13.49300     2.01700   0.
    14.14700     2.13700   0.
    14.47300     2.20300   0.
    15.12700     2.33700   0.
    15.45300     2.40300   0.
    16.11000     2.51700   0.
    16.44000     2.56300   0.
    17.10000     2.66300   0.
    17.43000     2.71700   0.
    18.08300     2.85300   0.
    18.40700     2.93700   0.
    19.06000     3.05300   0.
    19.39000     3.08700   0.
    20.04700     3.18700   0.
    20.37300     3.25300   0.
    21.03000     3.38300   0.
    21.36000     3.44700   0.
    22.01700     3.56000   0.
    22.34300     3.61000   0.
    23.00300     3.69300   0.
    23.33700     3.72700   0.
    23.99300     3.83700   0.
    24.31700     3.91300   0.
    24.97300     4.01700   0.
    25.30700     4.04300   0.
    25.95700     4.17700   0.
    26.27300     4.28300   0.
    26.91000     4.47700   0.
    27.23000     4.56300   0.
    27.87700     4.72700   0.
    28.20300     4.80300   0.
    28.86000     4.91300   0.
    29.19000     4.94700   0.
    29.84000     5.07300   0.
    30.16000     5.16700   0.
    30.81000     5.31700   0.
    31.14000     5.37300   0.
    31.80000     5.48000   0.
    32.13000     5.53000   0.
    32.78700     5.63700   0.
    33.11300     5.69300   0.
    33.76700     5.81000   0.
    34.09300     5.87000   0.
    34.74300     6.02000   0.
    35.06700     6.11000   0.
    35.72000     6.24000   0.
    36.05000     6.28000   0.
    36.70000     6.40700   0.
    37.02000     6.49300   0.
    37.67000     6.63700   0.
    38.00000     6.69300   0.
    38.65000     6.84700   0.
    38.97000     6.94300   0.
    39.61300     7.11000   0.
    39.93700     7.18000   0.
    40.58300     7.33700   0.
    40.90700     7.42300   0.
    41.55300     7.58700   0.
    41.87700     7.66300   0.
    42.52000     7.84300   0.
    42.84000     7.94700   0.
    43.47300     8.15700   0.
    43.78700     8.26300   0.
    44.41700     8.48000   0.
    44.73300     8.59000   0.
    45.38000     8.72700   0.
    45.71000     8.75300   0.
    46.36700     8.84700   0.
    46.69300     8.91300   0.
    47.34700     9.04300   0.
    47.67300     9.10700   0.
    48.31000     9.30000   0.
    48.62000     9.43000   0.
    49.25300     9.64000   0.
    49.57700     9.72000   0.
    50.23000     9.82700   0.
    50.56000     9.85300   0.
    51.20000    10.00700   0.
    51.51000    10.13300   0.
    52.13300    10.37000   0.
    52.44700    10.48000   0.
    53.08300    10.67700   0.
    53.40700    10.76300   0.
    54.02300    11.00700   0.
    54.31700    11.16300   0.
    54.90700    11.47300   0.
    55.20300    11.62700   0.
    55.80700    11.91300   0.
    56.11300    12.04700   0.
    56.71300    12.33700   0.
    57.00700    12.49300   0.
    57.59700    12.80300   0.
    57.89300    12.95700   0.
    58.51700    13.17000   0.
    58.84300    13.23000   0.
    59.50300    13.31000   0.
    59.83700    13.33000   0.
    60.43700    13.54700   0.
    60.70300    13.74300   0.
    47.78000    -3.98000   0.
    30.65200    -7.37800   0.
     9.53100   -10.15100   0.
    19.07800    -7.21200   0.
    55.73600     1.38800   0.
    38.88700    -2.37800   0.
    25.65400    -2.46200   0.
    59.94000     7.58600   0.
     2.97600    -7.06900   0.
    32.08600    -1.12600   0.
    10.93900    -3.89800   0.
    49.09400     2.54600   0.
    43.29900     2.08300   0.
    15.99500    -2.75300   0.
    53.99500     6.34300   0.
    20.84600    -1.55400   0.
    38.67100   -11.15800   0.
    35.76800     1.63100   0.
     6.51500    -3.71100   0.
    28.41200     0.68300   0.
    55.34000    -6.61100   0.
    39.58300     3.04900   0.
    45.80600     4.94400   0.
     0.03800    -4.18200   0.
    14.34400    -7.29500   0.
    50.30900     6.05100   0.
    24.72300    -8.02700   0.
    45.90400   -10.95800   0.
    23.49100     0.37500   0.
    31.14200     2.39600   0.
    34.88000    -5.15100   0.
    56.59100     8.57800   0.
    13.11000    -1.35600   0.
    18.08500    -0.29000   0.
    59.50000    10.57200   0.
    42.67700    -6.52700   0.
     3.25400    -3.03800   0.
     8.83100    -1.89400   0.
    51.85100    -1.47100   0.
    42.06400     4.71100   0.
    43.14600    -2.14800   0.
    46.46900    -0.20600   0.
    29.29200    -3.89200   0.
    22.75100    -4.91600   0.
    33.65000     3.14800   0.
    16.91200   -11.14500   0.
     8.63200    -6.62500   0.
    37.18100     3.99900   0.
    57.51000     5.19500   0.
    52.39700     3.43700   0.
    15.48800    -0.25500   0.
    25.67000     1.59400   0.
    50.40900    -8.38900   0.
    47.65500     6.56400   0.
    21.02600     0.91100   0.
    35.38600    -1.78800   0.
    34.43000    -9.61200   0.
    38.71900    -6.37600   0.
    60.73000     1.32400   0.
    21.71100   -10.72800   0.
    12.91700   -12.95900   0.
    40.85000     0.15900   0.
    51.91200     7.84400   0.
    18.84500    -4.03300   0.
     5.14100   -11.06700   0.
     0.30200   -11.00300   0.
    27.84700   -10.87800   0.
    10.78800    -0.77500   0.
     5.15800    -1.81100   0.
    13.58300    -3.94200   0.
    58.09200    -2.61500   0.
    43.96700     6.10600   0.
    28.88900     2.76900   0.
    54.11600     8.67500   0.
    26.58800    -5.49700   0.
    38.32300     0.81900   0.
     1.33600    -2.12500   0.
    39.88000     5.09700   0.
    11.50900    -6.64200   0.
    16.49300    -5.45400   0.
    57.51600    10.58500   0.
    23.23100    -1.96500   0.
    45.74000     6.86700   0.
    33.55800     0.75800   0.
     7.07700    -1.07600   0.
    32.22300    -4.02500   0.
    45.88900     2.41800   0.
     5.83000    -6.50900   0.
    35.43000     4.26900   0.
    49.15700     7.63100   0.
    60.44600    -7.37000   0.
    54.26200   -10.94500   0.
    12.41600    -9.50000   0.
    46.36100    -7.26600   0.
    19.11000     1.30900   0.
    49.88700   -12.87900   0.
    28.03500    -1.75900   0.
    31.42000   -10.94000   0.
    51.24600    -4.93700   0.
     8.71800    -4.11100   0.
    22.44200     1.87400   0.
    42.26500   -10.09600   0.
    27.14400     2.81600   0.
    48.01500     4.41500   0.
    13.65900     0.34300   0.
    21.98700    -7.54600   0.
    16.84400     0.89500   0.
    30.55400     0.38600   0.
     7.13700    -8.90700   0.
    49.14700    -0.32200   0.
    43.98100     4.00200   0.
    25.37100    -0.45900   0.
    32.22200     3.87100   0.
    41.11100    -4.09200   0.
    24.13900     2.13400   0.
    16.81000    -8.01200   0.
    44.89400    -4.40800   0.
    55.55400     9.86500   0.
    54.96400     3.91500   0.
     3.38800    -1.36700   0.
    41.54000     2.83400   0.
    27.86600    -8.01500   0.
    17.87800    -2.20200   0.
    54.75000    -3.18400   0.
    51.17800     1.30400   0.
    36.92400    -3.73900   0.
    11.95500     0.17800   0.
[...]
POINT_DATA      5441
CELL_DATA     10507
SCALARS Resistivity(Ohm-m) double 1
LOOKUP_TABLE default
             5.69941            13.80708             3.68824             5.48960            13.83076             3.27076            10.20551             2.72723             2.67593             6.84943             2.89518             8.75310            26.07046             2.94353            27.46926             9.25704             4.86918            19.17480            16.72769            12.27244            18.09322             4.94586            12.60583            72.38977           282.57546            95.93559            26.33498             6.36007            16.05681            23.83746            36.72732            70.21044             0.95995           318.78125             8.28070             2.60010             4.47941           153.04502             8.24221            37.33193            11.04908           182.12820             3.55414            38.26722             4.31543            48.12625            10.35335           262.01257             9.99668            12.65538           232.70234            14.30083            27.29550            13.33237             2.42759             4.82479             9.41764             9.83655             4.82225             0.97647             9.34793             8.84264           367.54108             6.26166            10.23619            17.95201            37.61913             2.40546             7.42101           171.02110            80.82082             7.03955            13.88405           152.96924            12.93988             3.31051            10.48835            14.57806             5.79357            22.55640            12.62034            16.45138             8.70974             9.58674             6.00918             4.72854             3.09728           378.96632            13.04822            14.71912            34.76593            15.38878            54.22355             3.63858             4.46293            43.53107             2.75397             2.26800             3.05171             5.10148            48.85775             5.90996            11.84957           578.73239             7.85376             6.56248             3.42217           721.62861             4.71333           276.79803            38.42394             1.63515            22.66034            13.97512            22.46266             9.24851             3.33150            84.31451            38.19832            14.36730           152.64161             7.85163             7.91958            20.80927           130.68780            12.79183            15.35922           381.82046           485.08820            18.36958           228.13279            13.92971             6.58795            69.98582            15.05791            26.49227            11.66812            10.98591             4.43956             4.83115             3.60877            12.91037             2.50323            22.62017            18.22574             5.67822            17.03760             6.44019            13.29204            11.91803            32.59192             6.87432             4.13901             8.12580           297.91582             9.87774            10.72819             4.42689            41.57089             3.48961           542.99663            13.77465             4.26426             4.17031            18.46146             3.62685            45.99814             1.29164            19.88671             7.71060             4.48736             6.47270             7.27591           437.18131            72.98550            24.50727            65.44117             8.01157             3.63042           453.89637             5.57982             5.41640            50.18945            18.20039             9.61816            48.52568            10.91930             8.39428            16.68997             4.17576             5.70943            10.34182           174.49540            13.14209            11.06449           382.56949             4.71736           284.33391             1.84982             2.69614             8.99866            22.15612             7.48513            30.28004             6.32098            14.43312            14.24512            17.11485             6.83793            65.54605             8.12644             9.07570             6.84634           758.85694           441.86022             6.06010            38.10574             1.22000            17.28663             1.57278             6.95423            40.88399           392.95297            56.01285            13.26113            49.92022           141.36681             5.90690            10.11631           258.21162            47.49387             7.66245             6.76399             9.97857           138.20238            36.45188             2.33345             2.42387             1.00809            54.40164           531.05313            16.44453             3.65195            18.90529            29.39648             7.89113            61.93587             3.43319             2.63805            78.34610           145.91699            32.05667            35.99499             2.99073           446.99313             1.39405            12.14925             5.12853             9.87342             1.29914             3.04206             1.03522            67.43746             6.54611            26.80790            12.86222           115.84679            20.84296            40.78437           242.83800          1053.36149            82.25617            47.27260            23.30735             4.71929             8.92790            32.81543            42.49551             4.13364            66.69993           106.08929            20.74346            13.48054            12.31165             6.88671            30.66479            14.14212           268.12897             2.89166           152.63404             0.93601            51.65663            29.39022            38.44245            73.20954            10.01737           300.86385             7.72709             1.46548            39.90741            15.81519            12.72645             5.93781             3.10382             1.42498             7.87698           639.02515             5.72797             4.12549             3.62783           924.10162             6.27029             6.52306             3.58077             1.97086             4.20853            14.57782             2.81694             8.07154             3.83686           334.20974             8.05444             6.10311            27.72168             9.20883             4.96111             6.87092             5.17791             6.90861             8.46164           111.82370           378.60774             2.31420           217.91615            39.84681            18.31166            38.26499             4.09550            18.42666             3.14034            23.20800             4.67970            39.14604            45.05799            34.68475             3.85664             5.91380             6.98225             7.15123            35.99244            57.53938             4.31214             6.86349            24.56787             2.36524           392.68033            47.19222             5.17892           171.01277            12.13645            30.59727             4.35962           306.27928            52.80020            12.27296             7.84343             2.78527             3.05368            11.98698             2.27723           159.10956            27.66259             5.05945             9.87917            11.63127            16.96703             5.35368             5.62006           170.28215             6.40290            47.59006             7.91996             7.39796           283.67985            57.73951           154.38910            36.51533            48.73368             3.67114             2.16978             4.90553            17.24921            11.06226             6.03736             6.24384            22.41319             1.18228             7.72052           186.33021             6.82790             9.90524             1.95886             5.03020             7.08849           139.81542             4.31464            19.89554            10.19654             1.32737             4.81468            14.03381             5.11647            14.37705            26.88601             1.02859            24.15253             5.07545            14.13425            39.42879           209.00013            25.96493           270.87921             2.43111             7.19753             6.01520            60.81035             3.07113             4.02160          1006.89799             8.21178            17.20347           235.65360            28.33688             7.31676            29.18228            31.86663             8.34192             2.90302            21.90301            17.63344            60.76145             5.42430            20.98363             5.48313             5.38392           156.95900           605.87297            28.24964             4.83299             8.10837             4.73649            23.55987             3.25622           407.41271             5.92571            32.89306             6.99256            15.94621           126.27835             3.12313             3.04578            43.55961          1213.02678             3.50805            85.92547            47.20082             8.95591            12.45604            46.54258           134.54837            29.80254             3.84975             7.82907             7.58424             6.45801           301.53300             5.68056             8.35896             2.77411           419.74443            19.33391            36.18406           302.12669             1.47612            52.71352            15.65632             6.04250            39.59543             2.46933            25.17420            22.07094            64.21509            14.52592             3.86555            16.94468             6.99822            34.55427            13.42168             6.36881           651.28810           447.01428            93.88634            67.44281             7.38738           194.02659             2.05234            15.62594            15.20985            18.60763            16.54331            10.48270            82.79327             5.98664             5.92101             6.99431             8.31750            28.21106            29.80064            17.30077            87.74630             5.11220             7.37861           152.21002            18.72275             5.12253           262.80649             2.91219             1.70233            17.96781             6.32906            15.13413            18.90361             6.27765           151.05385             4.73043             5.20165             4.31095             5.41756             4.42224           183.57314             4.96114            64.80227             4.93274            14.11975            89.93490           193.76344            85.21975             4.95167            13.99215            11.64048             2.25607             7.03083             2.26738            10.08248             9.96267            15.47728             5.35947            25.02102            33.65693            77.93313           266.70159            31.03469             8.05262             6.21396           352.12814             4.19385             8.71558            34.41199           399.63394             9.84294             3.79136             8.81935            44.16186            51.64491           240.07024             2.80338             4.69098            33.84866             4.73887             4.40373             6.68337             8.46788            53.74752           148.39456             9.48703           317.38115            26.74319            38.20835            22.72379             1.49544             9.51789             7.90933             4.67525            19.52492            59.74826             5.33467             9.44947             6.09138            22.52560            13.93984             2.16431             4.38628             5.03850             0.89470             2.51325             6.72178           694.16733             5.32823            28.40684             4.27520             2.25393             2.73794           789.23580             7.26831             4.84833             5.14310            22.03660           152.55722             5.17835             2.36070             7.86634           188.08059             3.66513            11.30232            39.95307            12.12909            33.65273            42.04189            28.94460            42.76238             3.85455            12.42854             8.02023             6.30198             3.50206            84.31220            42.30358             8.57517             6.00745             1.88625           285.50403           827.13004             8.62774            17.83394            17.59278             7.81656             6.26389            24.10612            37.91298            43.78561            26.17016            20.45253            11.39330             4.03791             1.73107             9.33355             2.02410             7.08973            35.95958            25.17867             0.82681             4.30648             1.92576            10.87811           178.24002             4.62051             0.83213            25.17728             3.12847            11.46660             1.73193            43.12668            13.69443            10.14593             7.02717           194.58289             5.09613             6.19881             7.26766             8.23992           115.91313            48.78741           267.98693            43.52111             2.03805             7.73842           392.63669           746.85887            11.53617             3.73512             9.18548             3.22081             3.18195            70.64024           744.28611            62.28082             4.98085            66.00050             4.74764             1.55594           671.06878            17.99663           955.41620            19.01761             6.18708            12.85151             5.57509            25.04214             1.47654            28.39972            26.65661             7.99928            12.57101             9.54050             9.33374            12.52494            13.25103            71.23992             3.95621            79.81684            36.51002            53.17781             5.18287             1.92130             9.95710           472.36331           248.40076             0.98911            23.64945             5.93738            11.26149            35.10918             6.62056            11.82035            24.55843            18.30483             4.96743           855.80829           390.60250            43.67190             2.38781             4.71686             3.83309            16.32612            16.15643             4.57559            44.45520            12.24205             6.46991            71.74860            10.24604           124.80051            28.89377             8.46494             5.27497            66.29870             4.14600           298.21975             7.24512             2.06569            31.94593             6.34078             7.71665            72.18700             3.65890             4.02959             9.76930            26.82388            15.43575             2.08215            12.73218             8.76443            12.36495             3.97179             7.88552           764.88921            14.03146            17.50692           181.53295             6.15532             2.15403            54.54915            16.50375             2.62532             4.14960            12.20861             6.96177            12.63781             2.41138            52.70145           156.47324             3.42360             7.57999            18.51637             5.50015            12.45094           772.00615             7.98171             7.12180            44.92116             6.70256            11.27670            12.00295             4.99531            28.81617             2.27000             3.48956             6.71490            57.23363             4.27238           332.61018            15.41707             5.64915             2.22688            34.39236             2.04104             7.24683            27.68989             2.40034             1.55103             4.66977            12.98574             4.58544            15.38193             6.50012            16.19902             4.22565            33.84189             3.34726             7.19584            40.76415            53.44377             6.68069            39.31758            16.12807            25.30049             3.18887            19.96000            15.28070            74.46560             3.08885            17.82968             2.14190            41.67925           624.04174             0.85114             5.42081             2.31538             2.59254            25.22584           255.51763            50.82911             6.69620            99.92087             2.15570            19.83517           103.23313            15.39053            13.48299             2.40762            10.81784           792.00673             1.81204             4.32844             7.68220             2.81198            12.10668             4.63758             5.26721             7.12878            11.19267            16.49784            10.09758            13.55732             5.71512             3.15981            33.31972            15.99354            16.75812             5.94239             2.53199             2.02144             7.01850             9.32996            23.57762             2.40176             2.78108            41.14411            13.91171             2.97325            11.67262            16.62324            17.74002            13.94348            73.52730             8.39274            23.68282             3.32352            10.12279            13.45368             3.54406             8.32590            31.20903            26.47478            18.69476             9.67384             6.38878             4.36380            21.42401           348.70256             5.21664             5.26884             8.86399           541.33038           305.42578             5.78045             5.75103             4.62969            32.88982            11.45070             6.08403             2.61452             9.40401             4.43156            14.31977             1.13347            22.10560             7.82697             1.30304            36.59747          1556.93517             5.00812             4.63898             4.75779            96.51186           707.78755            31.49904             2.02213            33.88996             6.33254            56.71753             6.06386             4.66507             4.90851           207.44725             2.16332             8.54303           280.60925            24.12713             5.42000           294.20494             1.11909             3.60847            90.01228             7.32904            20.61276             1.17980             4.87959            18.17004            30.87821             6.25520             2.22648             9.98040            29.14900             6.01756             7.56371             2.10358            42.96719            19.07613            20.18163             4.43962            24.05688             6.09407          1044.59439            33.26138           102.48929            18.64584             2.22244             6.43849             4.05064           182.93688             3.83644            18.49692            13.83143             3.88634             2.18435             4.38806            12.13326             4.17218           308.14295            16.42229            22.86252            29.19383             6.12867             3.432