# vtk DataFile Version 3.0
Output from R2
ASCII
DATASET UNSTRUCTURED_GRID
POINTS       1414 double
     0.00000  2968.10000   0.
     1.54000  2966.60000   0.
     3.08000  2964.90000   0.
     4.61000  2964.10000   0.
     6.15000  2963.30000   0.
     7.69000  2962.60000   0.
     9.23000  2961.50000   0.
    10.76000  2960.70000   0.
    12.30000  2960.00000   0.
    13.84000  2959.30000   0.
    15.38000  2958.70000   0.
    16.91000  2958.10000   0.
    18.45000  2957.30000   0.
    19.99000  2956.60000   0.
    21.52000  2955.80000   0.
    23.06000  2955.00000   0.
    24.60000  2954.30000   0.
    26.14000  2953.50000   0.
    27.68000  2952.80000   0.
    29.21000  2951.90000   0.
    30.75000  2951.10000   0.
    32.29000  2950.20000   0.
    33.83000  2949.50000   0.
    35.36000  2948.70000   0.
    36.90000  2948.10000   0.
    38.44000  2947.30000   0.
    39.98000  2946.70000   0.
    41.51000  2946.10000   0.
    43.05000  2945.50000   0.
    44.59000  2945.10000   0.
    46.13000  2944.50000   0.
    47.66000  2944.10000   0.
    49.20000  2943.60000   0.
    50.74000  2943.40000   0.
    52.28000  2943.00000   0.
    53.81000  2942.50000   0.
    55.35000  2942.10000   0.
    56.89000  2941.60000   0.
    58.43000  2941.00000   0.
    59.96000  2940.60000   0.
    61.50000  2940.10000   0.
    63.04000  2939.50000   0.
    64.58000  2939.10000   0.
    66.11000  2939.20000   0.
    67.65000  2939.20000   0.
    69.19000  2939.10000   0.
    70.73000  2938.90000   0.
    72.26000  2938.60000   0.
    73.80000  2938.30000   0.
    75.34000  2938.50000   0.
    76.88000  2938.70000   0.
    78.41000  2938.60000   0.
    79.95000  2938.80000   0.
    81.49000  2938.90000   0.
    83.03000  2939.10000   0.
    84.56000  2939.10000   0.
     3.42000  2957.55000   0.
     8.97000  2954.51000   0.
    14.52000  2951.86000   0.
    20.07000  2949.38000   0.
    25.63000  2946.59000   0.
    31.18000  2943.67000   0.
    36.73000  2940.99000   0.
    42.28000  2938.62000   0.
    47.83000  2936.87000   0.
    53.39000  2935.46000   0.
    58.94000  2933.69000   0.
    64.49000  2931.95000   0.
    70.04000  2931.81000   0.
    75.60000  2931.36000   0.
    81.15000  2931.70000   0.
     0.51333  2967.60000   0.
     1.02667  2967.10000   0.
     2.05333  2966.03333   0.
     2.56667  2965.46667   0.
     3.59000  2964.63333   0.
     4.10000  2964.36667   0.
     5.12333  2963.83333   0.
     5.63667  2963.56667   0.
     6.66333  2963.06667   0.
     7.17667  2962.83333   0.
     8.20333  2962.23333   0.
     8.71667  2961.86667   0.
     9.74000  2961.23333   0.
    10.25000  2960.96667   0.
    11.27333  2960.46667   0.
    11.78667  2960.23333   0.
    12.81333  2959.76667   0.
    13.32667  2959.53333   0.
    14.35333  2959.10000   0.
    14.86667  2958.90000   0.
    15.89000  2958.50000   0.
    16.40000  2958.30000   0.
    17.42333  2957.83333   0.
    17.93667  2957.56667   0.
    18.96333  2957.06667   0.
    19.47667  2956.83333   0.
    20.50000  2956.33333   0.
    21.01000  2956.06667   0.
    22.03333  2955.53333   0.
    22.54667  2955.26667   0.
    23.57333  2954.76667   0.
    24.08667  2954.53333   0.
    25.11333  2954.03333   0.
    25.62667  2953.76667   0.
    26.65333  2953.26667   0.
    27.16667  2953.03333   0.
    28.19000  2952.50000   0.
    28.70000  2952.20000   0.
    29.72333  2951.63333   0.
    30.23667  2951.36667   0.
    31.26333  2950.80000   0.
    31.77667  2950.50000   0.
    32.80333  2949.96667   0.
    33.31667  2949.73333   0.
    34.34000  2949.23333   0.
    34.85000  2948.96667   0.
    35.87333  2948.50000   0.
    36.38667  2948.30000   0.
    37.41333  2947.83333   0.
    37.92667  2947.56667   0.
    38.95333  2947.10000   0.
    39.46667  2946.90000   0.
    40.49000  2946.50000   0.
    41.00000  2946.30000   0.
    42.02333  2945.90000   0.
    42.53667  2945.70000   0.
    43.56333  2945.36667   0.
    44.07667  2945.23333   0.
    45.10333  2944.90000   0.
    45.61667  2944.70000   0.
    46.64000  2944.36667   0.
    47.15000  2944.23333   0.
    48.17333  2943.93333   0.
    48.68667  2943.76667   0.
    49.71333  2943.53333   0.
    50.22667  2943.46667   0.
    51.25333  2943.26667   0.
    51.76667  2943.13333   0.
    52.79000  2942.83333   0.
    53.30000  2942.66667   0.
    54.32333  2942.36667   0.
    54.83667  2942.23333   0.
    55.86333  2941.93333   0.
    56.37667  2941.76667   0.
    57.40333  2941.40000   0.
    57.91667  2941.20000   0.
    58.94000  2940.86667   0.
    59.45000  2940.73333   0.
    60.47333  2940.43333   0.
    60.98667  2940.26667   0.
    62.01333  2939.90000   0.
    62.52667  2939.70000   0.
    63.55333  2939.36667   0.
    64.06667  2939.23333   0.
    65.34500  2939.15000   0.
    66.88000  2939.20000   0.
    68.42000  2939.15000   0.
    69.70333  2939.03333   0.
    70.21667  2938.96667   0.
    71.24000  2938.80000   0.
    71.75000  2938.70000   0.
    72.77333  2938.50000   0.
    73.28667  2938.40000   0.
    74.31333  2938.36667   0.
    74.82667  2938.43333   0.
    75.85333  2938.56667   0.
    76.36667  2938.63333   0.
    77.64500  2938.65000   0.
    78.92333  2938.66667   0.
    79.43667  2938.73333   0.
    80.72000  2938.85000   0.
    82.00333  2938.96667   0.
    82.51667  2939.03333   0.
    83.79500  2939.10000   0.
     0.08400  2959.57200   0.
     1.19600  2958.89800   0.
     2.30800  2958.22400   0.
     4.53000  2956.94200   0.
     5.64000  2956.33400   0.
     6.75000  2955.72600   0.
     7.86000  2955.11800   0.
    10.35750  2953.84750   0.
    11.74500  2953.18500   0.
    13.13250  2952.52250   0.
    15.90750  2951.24000   0.
    17.29500  2950.62000   0.
    18.68250  2950.00000   0.
    21.18200  2948.82200   0.
    22.29400  2948.26400   0.
    23.40600  2947.70600   0.
    24.51800  2947.14800   0.
    26.74000  2946.00600   0.
    27.85000  2945.42200   0.
    28.96000  2944.83800   0.
    30.07000  2944.25400   0.
    32.56750  2943.00000   0.
    33.95500  2942.33000   0.
    35.34250  2941.66000   0.
    38.11750  2940.39750   0.
    39.50500  2939.80500   0.
    40.89250  2939.21250   0.
    43.66750  2938.18250   0.
    45.05500  2937.74500   0.
    46.44250  2937.30750   0.
    49.22000  2936.51750   0.
    50.61000  2936.16500   0.
    52.00000  2935.81250   0.
    54.77750  2935.01750   0.
    56.16500  2934.57500   0.
    57.55250  2934.13250   0.
    60.32750  2933.25500   0.
    61.71500  2932.82000   0.
    63.10250  2932.38500   0.
    65.87750  2931.91500   0.
    67.26500  2931.88000   0.
    68.65250  2931.84500   0.
    71.43000  2931.69750   0.
    72.82000  2931.58500   0.
    74.21000  2931.47250   0.
    76.98750  2931.44500   0.
    78.37500  2931.53000   0.
    79.76250  2931.61500   0.
    82.53750  2931.75500   0.
    83.92500  2931.81000   0.
     6.60134  2937.05984   0.
    20.80435  2932.52560   0.
     3.78758  2946.36592   0.
    15.48523  2940.98228   0.
    29.30091  2934.50364   0.
    23.90594  2939.46561   0.
    40.87322  2931.62711   0.
     1.03219  2951.87344   0.
    10.83406  2946.32292   0.
    20.42668  2943.42459   0.
    48.80952  2930.83467   0.
    35.50309  2935.49258   0.
     7.54365  2949.73854   0.
    28.57967  2939.84283   0.
    15.90963  2945.83181   0.
    44.30452  2933.27820   0.
    -0.12722  2955.42655   0.
    24.47411  2943.04615   0.
     4.45051  2952.86019   0.
    40.01017  2935.22543   0.
    52.75593  2931.58993   0.
    13.75183  2934.27842   0.
    32.31862  2938.44653   0.
     0.40990  2931.04902   0.
    19.20708  2946.27332   0.
    57.19103  2930.55709   0.
    -0.97178  2947.27328   0.
    19.39705  2939.49643   0.
    11.08068  2950.12444   0.
    32.86215  2930.47012   0.
     7.41320  2941.82707   0.
    13.76382  2948.77946   0.
    27.17579  2942.79365   0.
     7.27112  2952.68663   0.
     2.71547  2954.94653   0.
    22.91159  2945.17994   0.
     2.00816  2941.86911   0.
    24.73355  2934.79062   0.
    47.86753  2934.00196   0.
    50.62083  2933.29089   0.
    60.15732  2930.28185   0.
    37.65425  2937.53830   0.
    44.64836  2929.77041   0.
    10.93416  2939.02064   0.
     4.26476  2949.76242   0.
    36.78915  2931.78219   0.
     7.36345  2946.13476   0.
    30.92470  2941.06806   0.
     6.19921  2931.10091   0.
    35.16618  2938.51604   0.
    16.36294  2929.87801   0.
    13.43632  2943.77014   0.
    42.64967  2935.50406   0.
    26.89596  2931.23775   0.
     1.59760  2936.73753   0.
    17.19200  2948.13905   0.
    -0.61497  2957.60981   0.
    26.49360  2937.36117   0.
     9.56799  2951.50953   0.
    17.55858  2943.77119   0.
    55.26825  2932.33039   0.
    22.03247  2936.46128   0.
    16.10828  2937.24515   0.
    22.48452  2941.40733   0.
    20.86327  2946.43955   0.
    29.71126  2937.35408   0.
    32.14062  2935.59882   0.
    45.26358  2935.44707   0.
    29.19256  2942.39482   0.
    25.22337  2944.48902   0.
    25.77440  2940.40763   0.
     5.12787  2951.33100   0.
     9.72036  2943.07255   0.
     0.63027  2944.64860   0.
     5.15669  2954.13690   0.
    33.80274  2940.56791   0.
     1.57076  2956.41210   0.
     9.31000  2947.97928   0.
     9.87726  2933.53233   0.
    53.60824  2932.85261   0.
    40.63972  2936.89193   0.
    13.47285  2946.23828   0.
    37.68088  2934.75035   0.
    46.32767  2931.88185   0.
    18.64740  2941.16071   0.
    13.09413  2950.32980   0.
    18.01744  2935.92389   0.
     0.55332  2948.73049   0.
     5.35766  2947.55011   0.
    42.44669  2933.52960   0.
    57.75733  2932.24094   0.
    23.68300  2931.83870   0.
    19.94397  2947.74183   0.
    61.81887  2931.15328   0.
[...]
POINT_DATA      1414
CELL_DATA      2568
SCALARS Resistivity(ohm.m) double 1
LOOKUP_TABLE default
          1176.71542          1762.87853          2415.49449          1135.86602           524.10242          2418.09310          1264.57353          1455.66441          1664.53357          2098.92743           791.52228          2042.07285           595.19211          2485.83319          2410.63169          1885.45414          1598.02026           448.74293           494.28588          2652.97685          1168.19955          1890.24157          1304.59729           641.09476          1899.51467           556.62178           275.10749          2366.26821          2250.81671          2406.28180           517.22855           561.50212          1680.08064           410.26767           376.71378          1714.97506           743.81878           972.03557          1264.14438          1579.55052          1831.87539           707.38122           455.99856          2409.03333           335.38698           438.35453          3125.09548           841.31906           625.21126           901.13381          2905.34835          1887.43130          1011.84589          1598.92062          2368.26368           934.07491           364.59975          2374.96461           443.17094          1083.40036           537.02333          2244.10004           443.79616          1823.78015           277.86991          1577.97111          2237.22862          2043.66134           298.17008           724.96952           522.04339           785.49468          2110.27816           400.62650           326.55563          3015.60653          1429.21146           439.73229           342.64151          3008.54750          2921.72325          1384.56088           416.62170           446.31540          2130.86468           794.63635           339.60063          2127.31272           849.58061          1903.66239          1071.12635           358.65568          2413.76490           362.39590          1862.75190          2059.16743           502.21013          1207.15014          2288.73124          1023.69703          1553.33201           559.50354           653.80998           733.20469           916.03645          1707.71465           526.15880           948.55577          2231.46506          1280.27945           391.14606          1072.05125          2619.05597          1791.93313          2062.97382          1344.72808           997.02598          1531.47679           446.25603           324.45854          2556.56443          1405.35936          3136.52720           748.52049           480.13883          2160.70706          2489.55132          3302.65302          1791.48551          1390.22288          2132.36414          1126.89242          1270.46656          2441.29021           839.89049          2893.67859           382.59234          1680.84182          1028.56638          1392.54579          1611.56929           537.82477           635.96877          1296.58278          1670.98077           587.41839           477.06533          1486.17746          1994.48459           607.47597          2393.36397          1950.73601           939.45260           708.24925          2536.56024           301.79534          1553.74323           411.11701          2288.31291          1315.07115          1152.14131           538.00737          2352.64868           505.70848          2311.73596           535.95992          1436.08255          1824.29681          1928.61728          1744.25303           730.14754           785.58585           711.65459           284.28278           403.41453           908.00901           817.77642          3496.77817          2719.54425          1132.57755          2479.07912          1350.55577          2048.63530           751.08861           553.44961           985.61266           875.51790           664.42451           857.49600          2660.05523          1252.54539          2615.08008           596.74664          2874.59649           280.97116           512.18254          2837.54927          2125.83557          1251.62646           414.38929           302.72056           814.76147          1763.91439          1465.67995          1783.54031          1068.08361          3729.82683          2380.19650           386.81825          2326.12438          1343.25124           617.46529           418.75110           344.68764           637.04516          1213.78626          2465.74734           515.62023          1254.27800           541.18002           855.15981          1308.45291          1116.22938           354.47492           646.51301           644.13792           380.71194           547.20329          1325.59456           322.88911          1007.41299          2087.33273          1424.93807          2969.31300          2651.81113          1598.05696          2704.91273          1370.53499          1369.76100          1387.02141          2779.88199           658.00969           976.41394           405.67128          2697.82318           283.43291          1876.76323           514.08719           435.58142          2192.92853           276.76309          2041.20346          1665.10116           687.82941          2067.48208           980.32147           642.25599           726.71392           707.49035          2889.02700           558.48323          2280.24794           455.26247           429.17665           458.70141          1577.98651           365.29962          2435.16148           913.85984          2418.39637           963.72722          2132.00754          2461.03547          2392.94989           477.10028          1621.08448          2284.59853           474.91846           713.09342           663.20870           482.22337          1412.83446           292.06211           947.85852           904.42329          2432.74915           473.50535          2699.72822           626.35051           443.49422           905.36615           319.46160          2519.22172           651.02168          1994.63798          2505.21361          1415.11121           554.57051           438.30552           651.31491           964.63234           457.46387          2804.86669          2667.70593           401.58761          1839.24087          1343.50437          1540.51356          1964.69457           380.33889           687.38273           575.82673           298.04678          2476.61420           782.26849           346.57457           517.44074          1097.23506          2769.97667           485.48337          3273.46669           372.16386           854.94318           433.03697           551.26572          1238.01553           486.99699          1419.23687          1070.07956          2980.18614          1779.11809          2286.59825           501.94169          1525.67840           337.13742           384.32044           597.86782           609.75923          3203.00019           627.39824          2287.30702           409.22389          2219.04441           437.08265           592.48327          1821.78536          1191.66245           972.69395           480.96705          2330.61357           434.72194          2594.86907           784.57564           385.38595           469.44550          2180.29305           520.67208          1545.53239           317.52597           380.43544           817.96357          1532.68204           897.21472           513.49655          1378.67088           485.74470           371.94609          2524.23893          1720.83664          2676.96731           462.82361          1335.53352          1428.77644           965.89472           297.91911          2802.61458           385.85251           505.42894           418.38877          2099.53898          1384.46379           427.91488          1790.01320          2643.18034           285.46123          1373.57014           575.98262          1303.97615           445.88414          1454.18460           694.97953           330.15240          1450.18563          1355.74684           414.96243           808.73355           558.31923          1284.00815          1745.25275          1000.72702           552.05847           614.10511          1361.89026          1464.41330          1328.33698           876.51896           584.56704           951.51438          2465.15388          1629.60227          1483.22420          2321.86638           986.08890           640.00403          1077.96182          2792.84277           689.82111           795.73744           705.03298          1704.32919           962.73984           371.19991          2363.47376          1381.37127          1289.40522           288.19615          1598.86677           567.47841          1422.28843           457.13019          1337.48252           451.38536           415.18873          2011.44286          1050.48906          1483.41891          1489.65230           648.00204          1915.31406          1239.61994          3513.91599           642.38212          1212.42860          2179.40037          1181.66958          1091.26159          1322.71945          1243.53110          3966.68988           857.80017          3335.55086          1556.92688          1428.95516          1151.71829          1644.70226           839.57067          2224.45723           927.50755          1322.95895           431.36959          1925.03758          1352.79021           887.82793          1262.83672          2265.86335           836.02885           855.89313          1137.08593          1714.59395          1625.84640           811.83459          1835.47624           893.54550           292.33552          1949.56651          3730.41234          1030.58902           409.05639          1453.78119           732.53922          1017.34812          1978.79082           517.26104           493.36803          2197.12289          3006.57955          1205.69836           367.56959           701.53538           792.28966          1312.00625          1107.72328          1095.06949          1528.24329           805.83079          1481.72857           775.45172          1079.75614          2558.85481          1823.42493           671.72536           336.50191           587.22644          1276.78979           786.98456          1229.55037          3527.23491          1286.51586           352.46140           492.73611          1223.49525          1221.41377           889.81158           396.27215          3153.87345          1419.91390           361.93412          3244.59726          2473.73123           434.24049          1394.58537          1280.27648          1103.67482          1160.03743          1103.06416           539.39264          1543.00473          1458.41500          1478.32585          1232.77112           707.89667          1693.78094           458.87030          1160.01957           569.32756           438.60801           731.66011          1707.08570          1133.24204           940.48153           456.22961           385.95232          1701.26758          1177.19425          3646.83275          4472.88757          2821.11869          1698.28182          1801.54953          1888.77687          3177.44776          4228.86335           553.99170          4407.55045           270.85304           940.21947          1230.23370           613.02409          3638.24379          5219.62660          1131.67718           359.71625          1975.15091          2725.45519           608.87423           774.65111          1405.34728          4069.39116          1151.98384          2322.85746           885.79563           586.41047          1233.94560          1564.87264           452.62662          3303.63147           554.41004          1118.67257          4587.20563          3515.11981          1463.57438          5267.82011           318.08003           815.15403           510.75684          1556.60126          3002.50565          1594.10854          2828.65612          1699.38316          2713.42994           592.59438          1382.75990          1289.70316          1524.93298          9274.21096          2964.95018           907.59150          4472.70888          3565.45048           640.54422           704.93050          5203.73827          2697.66567          3941.44372          4880.08542          1349.99387           749.90212           603.39958           424.95798           742.94853          3827.59393          1464.34021           880.34879          1704.78639           354.70561           945.18214          1511.74167          3349.86505           881.83336           726.74320           716.16909           503.40306          1372.05201          1271.89012           733.84865          2584.81102          2654.45853          3332.14016          2837.64369          5261.64362          4679.68918          1925.75830           484.11814          3952.30712          1040.04999          1534.65356           638.57882          1374.49138           643.82389           257.34135          6448.58944          5019.82588          1501.77239          1411.73791          2921.64731          1678.94701          2761.51630          2520.01572           795.15172          1005.11837           502.62941           916.63992           369.77404           559.80375           634.79104           540.54222          1973.03468          4885.71183          3018.27800          1463.64824          1838.85770          1229.58575          1262.53179          7058.27552          4721.25590          1545.61571           385.56868           563.07819          5202.06950           645.74282          3657.44095          3948.70422           922.67442          2433.68287           609.15322           789.59167           928.44644          2328.42123          2316.89454          2156.84490           606.03653           434.67723          1014.30343           370.37006           553.77695           365.41574          2891.41496          5274.12312           483.12976          2840.45859           781.83475          2635.58963          1065.40796           695.69941           586.25700           587.11507           572.14784          1977.12975           691.88693          1120.41934           651.63716          2187.28461          1948.00849          3322.82580          2551.86822           404.22993           489.55991           353.92567          2686.50888           595.87282           634.25943          1192.16769          2507.53177           893.91967           629.35236           492.32480          1163.17359           728.18764          1321.88137          1329.12443           553.96842           610.93448           558.03282          2867.59526          1602.97418           983.68735          6909.99702           917.28626           696.67932           891.30115          1171.32629          2326.09612          1586.97826          1265.43767          1334.93059          2533.94983           656.75877          5949.17209          1090.17037          2939.95681           642.46241          1022.66427          3378.54361          2689.77686           681.05093          1022.36699          2653.93930           471.49545           455.02406          1119.95840          2655.64418          5832.10162          1261.09751          6317.72350          1066.05489          1362.33615          1563.52443          1040.04727           425.59107           508.72344          2645.13888           710.19473          4330.40742           615.17994          2576.97865           699.21317           419.45721          1175.71400          1693.79446          2710.10085          4186.19668          2725.89939          1270.97748          1431.07795          1106.59831          5426.68428          6522.49574          2097.01103           842.39260          2493.17869           552.13530           991.74710           753.40244          2032.85972          1003.98937           839.77368           614.60949           568.98981          3154.44282           841.62794           608.92381          5364.64192          3410.02874          2017.48586          1089.41646          9857.45545           712.86395          1857.74629          2465.97036          1867.47781           912.63886          2817.94380          5893.40422          1542.50008           339.64237           565.65502           863.74670          1563.21510          1434.93599           588.60049           586.28315          6481.49106           490.56869           926.56845          1659.39463          3277.79342          5188.54659           387.71762          1203.75812           782.21311          1008.73138          1737.01169           678.28226           814.15709          1270.54966           655.56666           617.95164           365.79790           786.88045          3055.88250           507.14997          3129.61661          1487.03933          1917.54413          1078.68512          1437.22391          1655.18110           373.86676          2510.78153          1261.17253          2005.27703          1552.98804          1696.80761          5423.55537           689.71577          4946.23926           474.34440           606.68767          1386.57456          1014.55269          6643.57274          2944.72758           688.98337          1384.93785          3615.96445          2791.48554           598.82915          3852.23431          1389.77102          2606.74813           888.91234          3246.22357          3097.53345           533.87149          3341.31595          3570.75419          2175.21227          5811.90035           635.61661           771.73411          1008.16342          2427.13927           465.07240          7961.58391          3885.02413           588.50682          1351.59208          1441.75589          1663.53480           648.55540          1000.90348         11903.08905           618.56806          1891.00304          1131.44182           456.68615           689.06699          2150.49179          4970.48154          5420.91629          1341.13194          1994.25824          2381.76942          4306.40684           661.82468          1075.40639          1555.47979          1492.95989          5304.45774           522.07644          1006.23915          2267.49599           739.08418          3330.62096          1744.47180          6147.27493          2279.00857           854.43256           954.86082           582.54877          5561.08291          6514.67114          1633.25391           305.83386           368.01270           727.58774           743.47985          5726.26672          1182.13837          1911.01252          2625.60224          2349.51832          4897.20159          6171.70417           359.27982           479.48119           715.19066          1169.14355           529.67694          4506.49772          3424.78878          1169.16127           714.87047           924.33700          1994.34526          3256.75852          1879.61972          1769.56949           733.62630          4526.53633          7154.11689           475.78209           508.28367          1814.91697          7028.75956          1437.49891          3343.03383          5371.38780           667.25074          1486.24028          4369.00821           492.46327          1490.25715           786.38270          4194.09621           858.67828          1846.74755          2544.30455          5133.46787          4397.45650          5497.28358          4120.56312          3857.28337          1553.10849           574.76191          3653.26548          8979.52893           617.60838          2166.98136          2159.92896           300.69776          2251.08149          2530.46259          2243.77929           383.89791          4257.83238           819.28828          2694.27248          3882.38707          1589.19575           506.08713          2620.43238          2854.82613          4542.32356          5580.13737          5016.05686           675.88606           597.76087           982.69715          5091.66603           898.32869          2381.02571           430.83592           540.438