# vtk DataFile Version 3.0
Output from R2
ASCII
DATASET UNSTRUCTURED_GRID
POINTS       5441 double
     0.00000     0.00000   0.
     1.00000    -0.02000   0.
     2.00000     0.06000   0.
     2.99000     0.18000   0.
     3.98000     0.34000   0.
     4.96000     0.50000   0.
     5.95000     0.66000   0.
     6.94000     0.82000   0.
     7.93000     0.98000   0.
     8.92000     1.11000   0.
     9.89000     1.34000   0.
    10.88000     1.51000   0.
    11.86000     1.68000   0.
    12.84000     1.91000   0.
    13.82000     2.07000   0.
    14.80000     2.27000   0.
    15.78000     2.47000   0.
    16.77000     2.61000   0.
    17.76000     2.77000   0.
    18.73000     3.02000   0.
    19.72000     3.12000   0.
    20.70000     3.32000   0.
    21.69000     3.51000   0.
    22.67000     3.66000   0.
    23.67000     3.76000   0.
    24.64000     3.99000   0.
    25.64000     4.07000   0.
    26.59000     4.39000   0.
    27.55000     4.65000   0.
    28.53000     4.88000   0.
    29.52000     4.98000   0.
    30.48000     5.26000   0.
    31.47000     5.43000   0.
    32.46000     5.58000   0.
    33.44000     5.75000   0.
    34.42000     5.93000   0.
    35.39000     6.20000   0.
    36.38000     6.32000   0.
    37.34000     6.58000   0.
    38.33000     6.75000   0.
    39.29000     7.04000   0.
    40.26000     7.25000   0.
    41.23000     7.51000   0.
    42.20000     7.74000   0.
    43.16000     8.05000   0.
    44.10000     8.37000   0.
    45.05000     8.70000   0.
    46.04000     8.78000   0.
    47.02000     8.98000   0.
    48.00000     9.17000   0.
    48.93000     9.56000   0.
    49.90000     9.80000   0.
    50.89000     9.88000   0.
    51.82000    10.26000   0.
    52.76000    10.59000   0.
    53.73000    10.85000   0.
    54.61000    11.32000   0.
    55.50000    11.78000   0.
    56.42000    12.18000   0.
    57.30000    12.65000   0.
    58.19000    13.11000   0.
    59.17000    13.29000   0.
    60.17000    13.35000   0.
    60.97000    13.94000   0.
    60.17000   -13.76000   0.
    60.97000   -13.16000   0.
     0.33300    -0.00700   0.
     0.66700    -0.01300   0.
     1.33300     0.00700   0.
     1.66700     0.03300   0.
     2.33000     0.10000   0.
     2.66000     0.14000   0.
     3.32000     0.23300   0.
     3.65000     0.28700   0.
     4.30700     0.39300   0.
     4.63300     0.44700   0.
     5.29000     0.55300   0.
     5.62000     0.60700   0.
     6.28000     0.71300   0.
     6.61000     0.76700   0.
     7.27000     0.87300   0.
     7.60000     0.92700   0.
     8.26000     1.02300   0.
     8.59000     1.06700   0.
     9.24300     1.18700   0.
     9.56700     1.26300   0.
    10.22000     1.39700   0.
    10.55000     1.45300   0.
    11.20700     1.56700   0.
    11.53300     1.62300   0.
    12.18700     1.75700   0.
    12.51300     1.83300   0.
    13.16700     1.96300   0.
    13.49300     2.01700   0.
    14.14700     2.13700   0.
    14.47300     2.20300   0.
    15.12700     2.33700   0.
    15.45300     2.40300   0.
    16.11000     2.51700   0.
    16.44000     2.56300   0.
    17.10000     2.66300   0.
    17.43000     2.71700   0.
    18.08300     2.85300   0.
    18.40700     2.93700   0.
    19.06000     3.05300   0.
    19.39000     3.08700   0.
    20.04700     3.18700   0.
    20.37300     3.25300   0.
    21.03000     3.38300   0.
    21.36000     3.44700   0.
    22.01700     3.56000   0.
    22.34300     3.61000   0.
    23.00300     3.69300   0.
    23.33700     3.72700   0.
    23.99300     3.83700   0.
    24.31700     3.91300   0.
    24.97300     4.01700   0.
    25.30700     4.04300   0.
    25.95700     4.17700   0.
    26.27300     4.28300   0.
    26.91000     4.47700   0.
    27.23000     4.56300   0.
    27.87700     4.72700   0.
    28.20300     4.80300   0.
    28.86000     4.91300   0.
    29.19000     4.94700   0.
    29.84000     5.07300   0.
    30.16000     5.16700   0.
    30.81000     5.31700   0.
    31.14000     5.37300   0.
    31.80000     5.48000   0.
    32.13000     5.53000   0.
    32.78700     5.63700   0.
    33.11300     5.69300   0.
    33.76700     5.81000   0.
    34.09300     5.87000   0.
    34.74300     6.02000   0.
    35.06700     6.11000   0.
    35.72000     6.24000   0.
    36.05000     6.28000   0.
    36.70000     6.40700   0.
    37.02000     6.49300   0.
    37.67000     6.63700   0.
    38.00000     6.69300   0.
    38.65000     6.84700   0.
    38.97000     6.94300   0.
    39.61300     7.11000   0.
    39.93700     7.18000   0.
    40.58300     7.33700   0.
    40.90700     7.42300   0.
    41.55300     7.58700   0.
    41.87700     7.66300   0.
    42.52000     7.84300   0.
    42.84000     7.94700   0.
    43.47300     8.15700   0.
    43.78700     8.26300   0.
    44.41700     8.48000   0.
    44.73300     8.59000   0.
    45.38000     8.72700   0.
    45.71000     8.75300   0.
    46.36700     8.84700   0.
    46.69300     8.91300   0.
    47.34700     9.04300   0.
    47.67300     9.10700   0.
    48.31000     9.30000   0.
    48.62000     9.43000   0.
    49.25300     9.64000   0.
    49.57700     9.72000   0.
    50.23000     9.82700   0.
    50.56000     9.85300   0.
    51.20000    10.00700   0.
    51.51000    10.13300   0.
    52.13300    10.37000   0.
    52.44700    10.48000   0.
    53.08300    10.67700   0.
    53.40700    10.76300   0.
    54.02300    11.00700   0.
    54.31700    11.16300   0.
    54.90700    11.47300   0.
    55.20300    11.62700   0.
    55.80700    11.91300   0.
    56.11300    12.04700   0.
    56.71300    12.33700   0.
    57.00700    12.49300   0.
    57.59700    12.80300   0.
    57.89300    12.95700   0.
    58.51700    13.17000   0.
    58.84300    13.23000   0.
    59.50300    13.31000   0.
    59.83700    13.33000   0.
    60.43700    13.54700   0.
    60.70300    13.74300   0.
    47.78000    -3.98000   0.
    30.65200    -7.37800   0.
     9.53100   -10.15100   0.
    19.07800    -7.21200   0.
    55.73600     1.38800   0.
    38.88700    -2.37800   0.
    25.65400    -2.46200   0.
    59.94000     7.58600   0.
     2.97600    -7.06900   0.
    32.08600    -1.12600   0.
    10.93900    -3.89800   0.
    49.09400     2.54600   0.
    43.29900     2.08300   0.
    15.99500    -2.75300   0.
    53.99500     6.34300   0.
    20.84600    -1.55400   0.
    38.67100   -11.15800   0.
    35.76800     1.63100   0.
     6.51500    -3.71100   0.
    28.41200     0.68300   0.
    55.34000    -6.61100   0.
    39.58300     3.04900   0.
    45.80600     4.94400   0.
     0.03800    -4.18200   0.
    14.34400    -7.29500   0.
    50.30900     6.05100   0.
    24.72300    -8.02700   0.
    45.90400   -10.95800   0.
    23.49100     0.37500   0.
    31.14200     2.39600   0.
    34.88000    -5.15100   0.
    56.59100     8.57800   0.
    13.11000    -1.35600   0.
    18.08500    -0.29000   0.
    59.50000    10.57200   0.
    42.67700    -6.52700   0.
     3.25400    -3.03800   0.
     8.83100    -1.89400   0.
    51.85100    -1.47100   0.
    42.06400     4.71100   0.
    43.14600    -2.14800   0.
    46.46900    -0.20600   0.
    29.29200    -3.89200   0.
    22.75100    -4.91600   0.
    33.65000     3.14800   0.
    16.91200   -11.14500   0.
     8.63200    -6.62500   0.
    37.18100     3.99900   0.
    57.51000     5.19500   0.
    52.39700     3.43700   0.
    15.48800    -0.25500   0.
    25.67000     1.59400   0.
    50.40900    -8.38900   0.
    47.65500     6.56400   0.
    21.02600     0.91100   0.
    35.38600    -1.78800   0.
    34.43000    -9.61200   0.
    38.71900    -6.37600   0.
    60.73000     1.32400   0.
    21.71100   -10.72800   0.
    12.91700   -12.95900   0.
    40.85000     0.15900   0.
    51.91200     7.84400   0.
    18.84500    -4.03300   0.
     5.14100   -11.06700   0.
     0.30200   -11.00300   0.
    27.84700   -10.87800   0.
    10.78800    -0.77500   0.
     5.15800    -1.81100   0.
    13.58300    -3.94200   0.
    58.09200    -2.61500   0.
    43.96700     6.10600   0.
    28.88900     2.76900   0.
    54.11600     8.67500   0.
    26.58800    -5.49700   0.
    38.32300     0.81900   0.
     1.33600    -2.12500   0.
    39.88000     5.09700   0.
    11.50900    -6.64200   0.
    16.49300    -5.45400   0.
    57.51600    10.58500   0.
    23.23100    -1.96500   0.
    45.74000     6.86700   0.
    33.55800     0.75800   0.
     7.07700    -1.07600   0.
    32.22300    -4.02500   0.
    45.88900     2.41800   0.
     5.83000    -6.50900   0.
    35.43000     4.26900   0.
    49.15700     7.63100   0.
    60.44600    -7.37000   0.
    54.26200   -10.94500   0.
    12.41600    -9.50000   0.
    46.36100    -7.26600   0.
    19.11000     1.30900   0.
    49.88700   -12.87900   0.
    28.03500    -1.75900   0.
    31.42000   -10.94000   0.
    51.24600    -4.93700   0.
     8.71800    -4.11100   0.
    22.44200     1.87400   0.
    42.26500   -10.09600   0.
    27.14400     2.81600   0.
    48.01500     4.41500   0.
    13.65900     0.34300   0.
    21.98700    -7.54600   0.
    16.84400     0.89500   0.
    30.55400     0.38600   0.
     7.13700    -8.90700   0.
    49.14700    -0.32200   0.
    43.98100     4.00200   0.
    25.37100    -0.45900   0.
    32.22200     3.87100   0.
    41.11100    -4.09200   0.
    24.13900     2.13400   0.
    16.81000    -8.01200   0.
    44.89400    -4.40800   0.
    55.55400     9.86500   0.
    54.96400     3.91500   0.
     3.38800    -1.36700   0.
    41.54000     2.83400   0.
    27.86600    -8.01500   0.
    17.87800    -2.20200   0.
    54.75000    -3.18400   0.
    51.17800     1.30400   0.
    36.92400    -3.73900   0.
    11.95500     0.17800   0.
[...]
POINT_DATA      5441
CELL_DATA     10507
SCALARS Resistivity(Ohm-m) double 1
LOOKUP_TABLE default
             5.69221            13.26306             3.68781             5.47885            13.14623             3.27298             9.90064             2.72486             2.68246             6.69851             2.99413             9.31051            25.69709             3.03382            26.34053             8.93962             4.97077            19.68132            15.35480            11.72503            18.69010             5.01227            12.07088            56.05612           138.44947            94.80134            25.19241             6.23442            14.85691            23.38654            32.79413            58.48470             0.97005           153.14511             8.72189             2.62362             4.47502            83.61611             8.34472            31.97938            10.28725           123.37636             3.64433            33.16551             4.30533            41.24722            10.04873           236.03203             9.92166            12.22220           109.87213            14.82103            25.98006            12.32257             2.44961             4.81537             9.47645            10.08983             4.79007             0.98640             9.07705             8.62381           273.65502             6.22738             9.78607            16.18299            34.08010             2.47584             7.47198           106.34554            83.18157             7.08706            14.39142           112.74873            13.03488             3.38667            10.68959            15.06279             5.70270            22.21909            12.82433            16.90307             8.49717             9.34513             5.97440             4.73887             3.09959           185.52477            13.30172            14.90349            31.69646            14.18768            45.72904             3.65741             4.41623            40.78981             2.76612             2.32964             3.06036             5.16440            45.33158             5.94683            11.92392           430.36173             8.02179             6.50555             3.41469           646.57305             4.70248           151.70990            31.95293             1.65386            23.66733            12.92687            19.67129             8.99364             3.38947            85.20099            33.99879            13.48848           101.46472             7.98149             7.98216            18.51840           114.26782            13.26027            15.89845           148.79386           294.02575            17.31263           189.79109            14.57183             6.71187            58.38298            15.35203            25.60732            10.89789            10.79780             4.40096             4.80815             3.60463            12.86569             2.52344            20.02037            16.32680             5.76501            15.21585             6.37445            13.76330            12.41704            31.00331             6.76685             4.15409             8.20271           202.80457             9.44982            10.26548             4.41946            42.15550             3.54081           260.93156            13.98516             4.24525             4.13725            16.87904             3.76323            34.24318             1.30697            18.73905             7.44607             4.49726             6.39297             7.38381           438.70495            59.33095            23.10894            55.03703             7.80217             3.62169           278.48939             5.57918             5.34926            41.92049            17.04803             9.85747            41.35268            11.33907             8.55544            16.88197             4.16346             5.58709            10.66612            91.90934            12.21689            10.36896           283.77760             4.67201           168.45143             1.86472             2.68631             9.11232            18.80371             7.31794            29.18241             6.51433            14.88174            14.54948            15.43696             6.95052            63.44114             7.89055             9.33167             6.74692           646.21777           432.36624             6.04198            32.53384             1.23198            17.84325             1.58546             6.85625            36.92760           167.44484            51.97098            13.64737            40.54070           101.44750             5.91573             9.57432           121.05862            40.27838             7.84354             6.79009            10.28947            89.94052            33.28032             2.34334             2.43156             1.01973            46.09082           514.52006            16.61445             3.69491            19.07976            27.88082             8.10007            59.89290             3.44761             2.67169            64.88797           100.20915            28.83706            29.53094             3.00091           172.84176             1.41385            12.14101             5.14996             9.36659             1.31307             3.08639             1.04638            44.98720             6.48484            25.11736            11.73636            95.63548            18.74346            37.08232           218.74979           609.23009            83.14523            45.74123            19.12325             4.75667             8.71561            27.56842            35.50120             4.13019            68.14593            93.84857            19.92054            11.99795            11.29877             7.14219            29.39437            12.97033           113.86349             2.98102            93.26417             0.94684            48.52977            30.06652            35.71853            51.96199            10.04498           154.19731             7.95391             1.48015            35.85325            16.34151            12.23158             5.89515             3.12061             1.44362             7.69818           469.59935             5.74095             4.14531             3.62447          1086.62391             6.14275             6.56691             3.57213             2.01412             4.39338            13.57110             2.91461             7.72152             3.80760           214.34528             8.48812             6.08172            23.52433             8.74433             4.94164             6.79587             5.22258             6.72454             8.53350            80.31449           240.12736             2.32998            99.02640            34.94529            16.78752            34.73543             4.22038            16.52646             3.15864            24.27596             4.72924            38.70966            39.51262            35.28286             4.04958             5.90229             7.16359             7.07776            29.59731            44.53622             4.32557             7.00408            23.37016             2.39128           215.85937            48.07452             5.17165            98.25747            11.30438            26.34507             4.32124           215.47338            37.96685            12.47861             8.36152             2.77212             3.06425            11.12634             2.33514            87.63873            24.29744             5.15170            10.10878            11.85713            15.52147             5.36585             5.64774           142.24265             6.40136            45.41962             7.99129             7.61716           163.47178            46.26316            77.76198            33.68300            39.25238             3.66910             2.21832             4.85418            17.46818            11.18770             6.18444             6.35651            21.39916             1.19947             7.57192           151.67811             6.76946             9.30818             2.01304             5.01052             6.94302           109.19783             4.46411            17.49716            10.36189             1.34782             4.81039            12.40234             5.17606            13.07877            27.39318             1.04080            21.55731             5.11784            14.43944            34.51183            82.32328            26.19097           227.21901             2.45699             7.44409             5.97148            51.16050             3.15670             4.01845           660.71020             8.29806            17.63895           107.20980            27.62169             7.17913            25.89612            30.02214             8.45712             2.91972            21.70214            16.50182            48.66434             5.49593            20.17112             5.56209             5.40683            77.62518           598.05614            24.84334             4.91245             8.60902             4.71289            23.48131             3.26221           339.66659             5.97310            30.91393             6.86360            16.18859            69.77488             3.13401             3.13222            39.86520           728.13386             3.50117            67.05760            49.19352             8.65065            11.58373            43.84796           144.99560            29.00808             3.95003             7.63469             7.47894             6.47143           201.69030             5.79713             8.89615             2.77379           343.79839            17.26010            32.69250           203.11234             1.49073            53.62510            16.10764             5.95614            35.82557             2.46972            25.83273            18.98611            50.99719            14.84841             3.86157            15.41591             7.17898            30.58953            12.56017             6.26729           357.35744           210.82995            79.30224            66.24548             7.29062           240.80273             2.07324            16.05824            15.18385            17.43738            17.12641            11.06387            73.86528             6.03762             5.93249             6.89721             8.41946            26.81421            28.31441            17.06151            77.40071             5.12940             7.46458           129.56590            17.03003             5.14984           193.27662             2.91050             1.71634            16.27029             6.52907            15.52570            19.34533             6.23138           127.98193             4.68652             5.26746             4.27564             5.46018             4.39198           148.91511             4.95310            42.70905             4.88937            14.24460            79.24967           108.37278            56.86024             4.99193            14.29678            11.03049             2.28803             6.87394             2.29900             9.65739            10.17528            13.89785             5.37220            25.81547            32.00577            59.34980           216.03267            28.74114             7.78620             6.21091           257.87958             4.29669             8.77133            34.47048           268.32840            10.19418             3.80377             9.24432            42.94455            44.45757           168.67328             2.81762             4.66755            31.63397             4.74141             4.36994             6.59705             8.42929            44.85167            92.09193             9.10455           140.33854            22.61592            33.63441            19.71435             1.51270             9.90147             7.65596             4.69646            17.45130            41.17152             5.36873             9.05592             6.19831            19.13803            13.32254             2.20484             4.44477             5.09207             0.90427             2.51402             6.77388           954.77577             5.23574            27.21821             4.28628             2.26053             2.78746           603.19468             7.33654             4.82175             5.16673            21.43394           102.41500             5.16912             2.38024             7.69653           111.31686             3.69295            11.44965            33.24279            12.25133            31.52312            38.46805            26.60836            37.28168             3.82797            11.74530             7.91562             6.40592             3.48017            82.08721            37.85072             8.52414             6.20833             1.93230           138.37192           529.32328             8.37664            18.03365            16.02927             7.64108             6.30778            23.89925            31.81594            39.36338            25.74442            20.06693            10.53624             4.02162             1.74043             8.80660             2.03024             7.15276            33.32216            26.23816             0.83705             4.27585             1.94690            11.35191            90.35897             4.59574             0.84070            23.38822             3.12347            10.77278             1.74020            33.35114            12.55550            10.27583             6.95237            90.98735             5.03000             6.19047             7.38892             8.41208            96.10281            44.33809           258.25285            39.63508             2.06129             7.48686           260.47845           643.72578            11.83533             3.72407             8.70662             3.23931             3.20867            53.93199           374.82847            22.40492             4.94549            20.60560             4.75748             1.56712           432.28326            16.22819           952.79801            18.44562             6.05760            11.72256             5.51602            23.48495             1.49821            28.54317            25.98051             8.05584            12.75120             9.69258             8.96807            13.07836            12.40057            73.81978             3.94635            66.34213            33.17231            43.28090             5.20256             1.93993             9.99069           275.88833           274.40418             0.99920            23.74887             5.88284            11.27141            36.67348             6.59353            11.98684            22.65705            18.34817             4.94553           895.21346           298.23631            37.36601             2.40350             4.68207             3.85509            16.79078            14.54137             4.54929            33.69446            11.68271             6.41740            66.96579            10.59596           103.66987            25.00288             8.52702             5.27962            60.72963             4.10108           304.10235             7.13302             2.07600            23.87828             6.30255             7.79546            72.84357             3.80500             4.02848            10.28699            24.83214            15.41918             2.09924            13.11287             8.82233            12.65234             4.09711             7.71416           806.09303            12.66061            16.04798           139.64328             6.08697             2.17028            53.66171            15.51440             2.62655             4.12300            11.38493             7.03150            11.61254             2.44287            42.30963            87.19671             3.44364             7.84494            16.84162             5.42402            12.56076           412.82205             7.82002             6.93950            34.94985             6.67412            10.77174            12.38174             4.99874            26.39232             2.27755             3.49537             6.56760            39.65312             4.25603           123.99762            13.85040             5.60499             2.25544            29.90346             2.07935             7.28862            23.99536             2.42244             1.56770             4.65922            13.32626             4.69443            14.43660             6.37001            13.99311             4.17790            29.13145             3.34178             7.23490            36.44215            39.19836             6.77707            35.37220            16.27536            25.36665             3.25239            19.71427            13.90877            65.97656             3.09141            18.18573             2.16348            37.63732           488.72588             0.86030             5.37752             2.32613             2.66176            24.72027           122.30602            38.07821             6.59176            87.68962             2.21606            19.17801           104.34024            15.74022            13.69771             2.47644            10.98584          1132.96727             1.82485             4.32709             7.70865             2.87920            12.37969             4.61814             5.24412             6.97182            11.02243            15.38025            10.41159            13.84023             5.73305             3.18921            31.29165            16.71804            17.00093             5.95244             2.54333             2.04706             7.10489             8.96939            20.83743             2.42398             2.84494            34.86578            13.65082             2.99714            11.08477            15.54573            16.56066            14.06591            62.22692             8.18498            20.63938             3.32350            10.66417            12.90864             3.54223             8.10845            28.00561            25.26858            17.05984             9.18607             6.39427             4.32421            20.48227           271.28569             5.17931             5.34351             8.66162           346.59943           333.65412             6.00985             5.76722             4.63158            28.46750            11.70860             5.98415             2.64481             8.88479             4.40446            14.50844             1.14107            18.98475             7.73066             1.31800            36.41461          1155.84856             4.99647             4.61923             4.74248            72.66050           591.62469            30.02932             2.04874            31.54174             6.27797            47.85257             6.06843             4.65501             4.85765           151.80163             2.18293             8.79978           267.36312            23.07909             5.38236           220.34886             1.13299             3.60270            90.84598             7.48352            20.02303             1.19237             4.85879            16.42580            28.84289             6.27320             2.23914             9.69435            28.87216             6.26574             7.64769             2.12855            42.15244            16.47365            20.01881             4.39782            20.61773             6.06373           485.85472            28.54429            87.32829            19.13927             2.23909             6.31488             4.02730            85.73793             3.81165            17.07211            14.20864             3.88433             2.20608             4.36588            12.53163             4.16067           215.11049            16.61196            21.20480            29.14804             6.27676             3.461