# vtk DataFile Version 3.0
Output from R2
ASCII
DATASET UNSTRUCTURED_GRID
POINTS       5441 double
     0.00000     0.00000   0.
     1.00000    -0.02000   0.
     2.00000     0.06000   0.
     2.99000     0.18000   0.
     3.98000     0.34000   0.
     4.96000     0.50000   0.
     5.95000     0.66000   0.
     6.94000     0.82000   0.
     7.93000     0.98000   0.
     8.92000     1.11000   0.
     9.89000     1.34000   0.
    10.88000     1.51000   0.
    11.86000     1.68000   0.
    12.84000     1.91000   0.
    13.82000     2.07000   0.
    14.80000     2.27000   0.
    15.78000     2.47000   0.
    16.77000     2.61000   0.
    17.76000     2.77000   0.
    18.73000     3.02000   0.
    19.72000     3.12000   0.
    20.70000     3.32000   0.
    21.69000     3.51000   0.
    22.67000     3.66000   0.
    23.67000     3.76000   0.
    24.64000     3.99000   0.
    25.64000     4.07000   0.
    26.59000     4.39000   0.
    27.55000     4.65000   0.
    28.53000     4.88000   0.
    29.52000     4.98000   0.
    30.48000     5.26000   0.
    31.47000     5.43000   0.
    32.46000     5.58000   0.
    33.44000     5.75000   0.
    34.42000     5.93000   0.
    35.39000     6.20000   0.
    36.38000     6.32000   0.
    37.34000     6.58000   0.
    38.33000     6.75000   0.
    39.29000     7.04000   0.
    40.26000     7.25000   0.
    41.23000     7.51000   0.
    42.20000     7.74000   0.
    43.16000     8.05000   0.
    44.10000     8.37000   0.
    45.05000     8.70000   0.
    46.04000     8.78000   0.
    47.02000     8.98000   0.
    48.00000     9.17000   0.
    48.93000     9.56000   0.
    49.90000     9.80000   0.
    50.89000     9.88000   0.
    51.82000    10.26000   0.
    52.76000    10.59000   0.
    53.73000    10.85000   0.
    54.61000    11.32000   0.
    55.50000    11.78000   0.
    56.42000    12.18000   0.
    57.30000    12.65000   0.
    58.19000    13.11000   0.
    59.17000    13.29000   0.
    60.17000    13.35000   0.
    60.97000    13.94000   0.
    60.17000   -13.76000   0.
    60.97000   -13.16000   0.
     0.33300    -0.00700   0.
     0.66700    -0.01300   0.
     1.33300     0.00700   0.
     1.66700     0.03300   0.
     2.33000     0.10000   0.
     2.66000     0.14000   0.
     3.32000     0.23300   0.
     3.65000     0.28700   0.
     4.30700     0.39300   0.
     4.63300     0.44700   0.
     5.29000     0.55300   0.
     5.62000     0.60700   0.
     6.28000     0.71300   0.
     6.61000     0.76700   0.
     7.27000     0.87300   0.
     7.60000     0.92700   0.
     8.26000     1.02300   0.
     8.59000     1.06700   0.
     9.24300     1.18700   0.
     9.56700     1.26300   0.
    10.22000     1.39700   0.
    10.55000     1.45300   0.
    11.20700     1.56700   0.
    11.53300     1.62300   0.
    12.18700     1.75700   0.
    12.51300     1.83300   0.
    13.16700     1.96300   0.
    13.49300     2.01700   0.
    14.14700     2.13700   0.
    14.47300     2.20300   0.
    15.12700     2.33700   0.
    15.45300     2.40300   0.
    16.11000     2.51700   0.
    16.44000     2.56300   0.
    17.10000     2.66300   0.
    17.43000     2.71700   0.
    18.08300     2.85300   0.
    18.40700     2.93700   0.
    19.06000     3.05300   0.
    19.39000     3.08700   0.
    20.04700     3.18700   0.
    20.37300     3.25300   0.
    21.03000     3.38300   0.
    21.36000     3.44700   0.
    22.01700     3.56000   0.
    22.34300     3.61000   0.
    23.00300     3.69300   0.
    23.33700     3.72700   0.
    23.99300     3.83700   0.
    24.31700     3.91300   0.
    24.97300     4.01700   0.
    25.30700     4.04300   0.
    25.95700     4.17700   0.
    26.27300     4.28300   0.
    26.91000     4.47700   0.
    27.23000     4.56300   0.
    27.87700     4.72700   0.
    28.20300     4.80300   0.
    28.86000     4.91300   0.
    29.19000     4.94700   0.
    29.84000     5.07300   0.
    30.16000     5.16700   0.
    30.81000     5.31700   0.
    31.14000     5.37300   0.
    31.80000     5.48000   0.
    32.13000     5.53000   0.
    32.78700     5.63700   0.
    33.11300     5.69300   0.
    33.76700     5.81000   0.
    34.09300     5.87000   0.
    34.74300     6.02000   0.
    35.06700     6.11000   0.
    35.72000     6.24000   0.
    36.05000     6.28000   0.
    36.70000     6.40700   0.
    37.02000     6.49300   0.
    37.67000     6.63700   0.
    38.00000     6.69300   0.
    38.65000     6.84700   0.
    38.97000     6.94300   0.
    39.61300     7.11000   0.
    39.93700     7.18000   0.
    40.58300     7.33700   0.
    40.90700     7.42300   0.
    41.55300     7.58700   0.
    41.87700     7.66300   0.
    42.52000     7.84300   0.
    42.84000     7.94700   0.
    43.47300     8.15700   0.
    43.78700     8.26300   0.
    44.41700     8.48000   0.
    44.73300     8.59000   0.
    45.38000     8.72700   0.
    45.71000     8.75300   0.
    46.36700     8.84700   0.
    46.69300     8.91300   0.
    47.34700     9.04300   0.
    47.67300     9.10700   0.
    48.31000     9.30000   0.
    48.62000     9.43000   0.
    49.25300     9.64000   0.
    49.57700     9.72000   0.
    50.23000     9.82700   0.
    50.56000     9.85300   0.
    51.20000    10.00700   0.
    51.51000    10.13300   0.
    52.13300    10.37000   0.
    52.44700    10.48000   0.
    53.08300    10.67700   0.
    53.40700    10.76300   0.
    54.02300    11.00700   0.
    54.31700    11.16300   0.
    54.90700    11.47300   0.
    55.20300    11.62700   0.
    55.80700    11.91300   0.
    56.11300    12.04700   0.
    56.71300    12.33700   0.
    57.00700    12.49300   0.
    57.59700    12.80300   0.
    57.89300    12.95700   0.
    58.51700    13.17000   0.
    58.84300    13.23000   0.
    59.50300    13.31000   0.
    59.83700    13.33000   0.
    60.43700    13.54700   0.
    60.70300    13.74300   0.
    47.78000    -3.98000   0.
    30.65200    -7.37800   0.
     9.53100   -10.15100   0.
    19.07800    -7.21200   0.
    55.73600     1.38800   0.
    38.88700    -2.37800   0.
    25.65400    -2.46200   0.
    59.94000     7.58600   0.
     2.97600    -7.06900   0.
    32.08600    -1.12600   0.
    10.93900    -3.89800   0.
    49.09400     2.54600   0.
    43.29900     2.08300   0.
    15.99500    -2.75300   0.
    53.99500     6.34300   0.
    20.84600    -1.55400   0.
    38.67100   -11.15800   0.
    35.76800     1.63100   0.
     6.51500    -3.71100   0.
    28.41200     0.68300   0.
    55.34000    -6.61100   0.
    39.58300     3.04900   0.
    45.80600     4.94400   0.
     0.03800    -4.18200   0.
    14.34400    -7.29500   0.
    50.30900     6.05100   0.
    24.72300    -8.02700   0.
    45.90400   -10.95800   0.
    23.49100     0.37500   0.
    31.14200     2.39600   0.
    34.88000    -5.15100   0.
    56.59100     8.57800   0.
    13.11000    -1.35600   0.
    18.08500    -0.29000   0.
    59.50000    10.57200   0.
    42.67700    -6.52700   0.
     3.25400    -3.03800   0.
     8.83100    -1.89400   0.
    51.85100    -1.47100   0.
    42.06400     4.71100   0.
    43.14600    -2.14800   0.
    46.46900    -0.20600   0.
    29.29200    -3.89200   0.
    22.75100    -4.91600   0.
    33.65000     3.14800   0.
    16.91200   -11.14500   0.
     8.63200    -6.62500   0.
    37.18100     3.99900   0.
    57.51000     5.19500   0.
    52.39700     3.43700   0.
    15.48800    -0.25500   0.
    25.67000     1.59400   0.
    50.40900    -8.38900   0.
    47.65500     6.56400   0.
    21.02600     0.91100   0.
    35.38600    -1.78800   0.
    34.43000    -9.61200   0.
    38.71900    -6.37600   0.
    60.73000     1.32400   0.
    21.71100   -10.72800   0.
    12.91700   -12.95900   0.
    40.85000     0.15900   0.
    51.91200     7.84400   0.
    18.84500    -4.03300   0.
     5.14100   -11.06700   0.
     0.30200   -11.00300   0.
    27.84700   -10.87800   0.
    10.78800    -0.77500   0.
     5.15800    -1.81100   0.
    13.58300    -3.94200   0.
    58.09200    -2.61500   0.
    43.96700     6.10600   0.
    28.88900     2.76900   0.
    54.11600     8.67500   0.
    26.58800    -5.49700   0.
    38.32300     0.81900   0.
     1.33600    -2.12500   0.
    39.88000     5.09700   0.
    11.50900    -6.64200   0.
    16.49300    -5.45400   0.
    57.51600    10.58500   0.
    23.23100    -1.96500   0.
    45.74000     6.86700   0.
    33.55800     0.75800   0.
     7.07700    -1.07600   0.
    32.22300    -4.02500   0.
    45.88900     2.41800   0.
     5.83000    -6.50900   0.
    35.43000     4.26900   0.
    49.15700     7.63100   0.
    60.44600    -7.37000   0.
    54.26200   -10.94500   0.
    12.41600    -9.50000   0.
    46.36100    -7.26600   0.
    19.11000     1.30900   0.
    49.88700   -12.87900   0.
    28.03500    -1.75900   0.
    31.42000   -10.94000   0.
    51.24600    -4.93700   0.
     8.71800    -4.11100   0.
    22.44200     1.87400   0.
    42.26500   -10.09600   0.
    27.14400     2.81600   0.
    48.01500     4.41500   0.
    13.65900     0.34300   0.
    21.98700    -7.54600   0.
    16.84400     0.89500   0.
    30.55400     0.38600   0.
     7.13700    -8.90700   0.
    49.14700    -0.32200   0.
    43.98100     4.00200   0.
    25.37100    -0.45900   0.
    32.22200     3.87100   0.
    41.11100    -4.09200   0.
    24.13900     2.13400   0.
    16.81000    -8.01200   0.
    44.89400    -4.40800   0.
    55.55400     9.86500   0.
    54.96400     3.91500   0.
     3.38800    -1.36700   0.
    41.54000     2.83400   0.
    27.86600    -8.01500   0.
    17.87800    -2.20200   0.
    54.75000    -3.18400   0.
    51.17800     1.30400   0.
    36.92400    -3.73900   0.
    11.95500     0.17800   0.
[...]
POINT_DATA      5441
CELL_DATA     10507
SCALARS Resistivity(Ohm-m) double 1
LOOKUP_TABLE default
             5.55165            12.89524             3.52820             5.34058            12.80218             3.20488             9.61942             2.65669             2.59266             6.52915             2.81271             8.17195            21.92334             2.85767            22.81388             8.61018             4.54944            17.44850            14.56857            11.27417            16.40798             4.63280            11.62374            59.02362           155.92169            73.48208            22.07969             6.05054            13.71223            20.43010            29.53566            60.37969             0.94816           183.41355             7.72607             2.56400             4.39590            78.27347             7.57705            26.31404             9.43803           113.76842             3.48124            26.67425             4.23039            37.39677             9.26753           368.52692             9.07601            11.12642           108.88907            13.59095            22.29637            11.08668             2.38614             4.58290             8.74567             9.02564             4.64361             0.96350             8.13081             8.31006           166.11773             6.00927             9.20110            15.15454            31.62191             2.34183             7.16808           121.75654            65.68201             6.61324            12.80778            92.67662            11.82810             3.22572             9.58241            13.87582             5.51484            18.63195            12.00511            15.06362             8.15520             8.62759             5.76320             4.61468             3.03968           211.86089            12.45497            13.19376            28.97477            12.46718            42.89753             3.44964             4.27681            37.58718             2.71185             2.20728             2.97247             4.76072            42.51195             5.77322            10.41322           889.52732             7.21944             6.13707             3.36970           630.09387             4.48707           130.66748            24.18549             1.61217            20.20847            11.86668            17.08260             8.14320             3.21694            57.95447            30.79972            12.69098           114.07927             7.15926             7.66983            17.00713            86.52426            11.87066            13.73597           121.10187           297.97920            15.15234           124.27625            12.43099             6.06787            68.38490            13.73046            22.17225             9.99148             9.85950             4.09405             4.52464             3.42803            11.08387             2.46651            18.17835            14.40395             5.51915            12.88128             5.99936            12.50362            11.05056            26.24038             6.46093             3.97210             7.40055           190.43588             8.79586             9.44107             4.18110            35.14659             3.43002           218.20517            12.37797             3.97431             4.04623            14.48056             3.46861            28.47342             1.26787            17.97637             6.84983             4.35934             5.98284             6.88655           401.97684            52.10473            21.66146            46.05668             7.38797             3.50619           210.94190             5.34232             5.21010            35.12927            14.87173             9.19362            39.61471            10.44256             8.04005            15.71696             4.09780             5.43670             9.28792            74.67897            10.67311             9.30487           152.08066             4.39421           141.26842             1.80844             2.65898             8.65512            15.53035             6.85190            25.48461             5.93268            13.36630            13.24213            13.34543             6.64089            45.78371             7.51485             8.28574             6.31301           853.01625           403.29212             5.67747            26.59200             1.20720            16.15580             1.55739             6.45261            32.55699           227.83514            42.97075            11.93373            40.98592           110.74585             5.43138             8.97796            88.51716            35.08773             7.42999             6.29560             9.57084           100.66243            28.93385             2.29641             2.38480             0.99041            41.97019          1180.00284            15.38346             3.58845            17.20895            24.57927             7.18644            47.08951             3.36376             2.56031            59.23116           127.95009            26.86630            22.02357             2.83236           126.50030             1.37646            10.51890             4.86036             8.36825             1.27571             2.91845             1.02362            33.94364             6.14642            21.77181            10.50102            67.64743            16.22935            34.50553           268.58022           417.39010            66.69686            36.86956            15.28057             4.35582             7.94551            21.94872            29.19981             4.05570            52.27420            65.61653            15.68022            10.08311             9.94471             6.33169            24.19106            11.62485           119.93399             2.83578            89.64274             0.92208            39.90700            25.74643            33.40696            45.40581             8.96995           166.26721             7.00477             1.45143            32.86432            14.93010            11.77895             5.53443             2.98894             1.39965             7.23786           637.24469             5.46487             3.96412             3.58375          1014.93654             5.68720             6.01895             3.48775             1.93418             4.07604            12.37957             2.76249             6.97208             3.56379           105.81703             7.51952             5.72784            18.33617             8.22333             4.78453             6.40534             4.83609             6.51114             8.05310            81.18254           175.54945             2.27910           101.07940            29.82955            14.40549            30.31971             3.99725            14.02671             3.07397            21.13554             4.58411            32.94810            31.78787            27.63606             3.70931             5.41134             6.59456             6.73183            25.42364            41.39200             4.21349             6.59381            20.94650             2.28658           146.57661            40.93234             5.04849            97.38122            10.05471            21.97077             4.16769           183.63831            28.36131            11.66629             7.35177             2.74037             2.94966            10.36254             2.22202           123.77173            20.67751             4.92207             9.50405            11.04818            13.46299             4.86431             5.40596           113.35351             5.92277            37.99209             7.12949             7.14622           194.77172            40.84074            75.20848            31.21751            34.62322             3.60914             2.11475             4.65458            15.50242            10.18109             5.64060             5.85995            18.02399             1.16428             7.19335           130.38721             6.49912             8.73936             1.92212             4.90738             6.39246           104.85851             4.20833            15.97866             9.78520             1.30819             4.70155            10.54501             4.90881            11.38714            24.15439             1.01763            18.04576             4.66294            12.67248            30.50478            87.61535            21.63468           121.54884             2.35064             6.66813             5.55033            44.03948             2.97013             3.93002          2816.88420             7.86898            16.40205           113.88526            22.28246             7.13805            20.22062            25.18944             7.94692             2.76501            16.88202            15.01404            40.82590             5.25106            17.18033             5.35606             5.22352            88.78699          1473.65240            21.31404             4.54589             7.52545             4.46568            17.74752             3.13424           256.55979             5.42898            26.67741             6.51191            15.06497            65.28820             3.06534             2.93638            36.61258          1201.80532             3.38306            56.79688            40.29325             8.25455            10.41601            36.41984           115.54841            25.64090             3.74513             7.42617             7.04697             6.23848            97.43275             5.19241             7.97004             2.70192           235.94424            14.96398            30.03518           197.87361             1.46288            44.34413            13.93439             5.51348            33.03685             2.39559            21.68227            15.69399            43.46836            13.88000             3.78361            13.58242             6.45997            23.74665            11.56453             5.88998           312.47192           340.99279            54.95039            54.53020             6.91294           336.35223             2.02653            13.68653            12.94439            16.70615            15.46859             9.65550            66.32318             5.54919             5.73755             6.50073             7.98077            22.91294            24.83591            14.44268            60.49073             4.69745             7.12937           106.65388            14.53700             4.98711           148.13395             2.75945             1.66563            14.27396             5.88161            13.87758            16.27038             5.91683           106.22539             4.56075             4.92160             4.13274             5.16572             4.13251            88.56600             4.68643            62.34146             4.75637            13.29799            68.29380           145.77724            51.86661             4.60050            13.35800             9.98168             2.18274             6.38422             2.20611             8.73558             9.59945            12.24944             5.17714            21.64596            29.21075            48.88929           139.18166            26.41535             7.22393             5.75641           135.53347             4.09540             8.32164            27.22888           178.47666             9.36634             3.72096             8.40196            34.98513            41.34170           185.65052             2.70047             4.40102            27.80353             4.47979             4.19902             6.24429             7.53427            45.65817            97.02696             8.08675           164.86021            17.93201            34.65910            16.76988             1.47122             8.48733             7.22271             4.55462            15.63655            32.78609             5.14057             8.12290             5.76616            15.57318            12.05500             2.08843             4.28879             4.79181             0.88290             2.45560             6.48538           727.98607             5.01804            22.20005             4.16891             2.20098             2.69753          1304.09280             6.83238             4.66934             4.66489            20.21297           133.84754             5.01103             2.28357             7.29376           105.50384             3.59146            10.74950            28.08838            11.70734            28.65051            32.99808            22.74809            26.56759             3.68838            11.02960             7.29601             6.10464             3.30315            58.67511            34.14285             8.25306             5.65795             1.85546           194.45515           466.38007             8.00826            16.20950            14.14193             7.48277             5.99957            18.59246            26.50512            36.65463            21.59468            18.72608             9.72721             3.96915             1.71353             8.14335             1.97354             6.83274            29.40264            22.90483             0.81214             4.16150             1.87148             9.72922            71.30888             4.39451             0.82321            20.40081             2.98600            10.00082             1.68305            26.52883            10.83961             9.40039             6.65240            63.90045             4.60653             5.73590             7.00854             7.95863            89.48454            39.55712           163.83765            33.55807             1.97798             6.97350           277.64616           825.25827            10.92867             3.67366             8.11566             3.06938             3.06792            46.13333           371.24895            44.93510             4.83624            50.29186             4.36823             1.51943           302.25390            15.17281          1340.20213            15.92670             5.90155            10.89929             5.35067            20.71866             1.45574            22.25757            23.58766             7.65771            11.15980             9.10665             8.46965            11.32669            11.69039            59.64716             3.82887            61.76172            27.49173            44.60709             4.75005             1.89485             9.17541           383.75094           212.72607             0.97472            20.38514             5.47245            10.09742            31.86921             5.98886            10.73981            22.55129            16.91999             4.57886          2029.54876           171.61729            37.47114             2.28847             4.32671             3.68531            14.56436            12.62177             4.35893            26.76340            10.75705             6.18362            52.52685             9.83538            85.82019            20.86841             7.72291             5.14828            56.74509             3.94782           261.02288             6.70241             1.99434            20.93522             5.85472             7.19267            57.60968             3.48746             3.96521             9.09571            22.56731            13.09550             2.05141            11.71645             8.42743            10.83235             3.74080             7.39767           854.56422            11.35142            14.65810           116.20654             5.66433             2.10923            44.77795            13.67557             2.52234             4.03502            10.60450             6.49470            10.18247             2.36009            36.45144            88.04248             3.36315             7.07847            15.54302             5.12684            10.72373           355.24582             7.44867             6.49776            30.84787             6.47734             9.76920            11.31223             4.76219            24.21358             2.23756             3.43170             6.15119            29.21763             4.02918            98.36909            11.75768             5.32723             2.19012            30.72922             1.98788             7.04692            20.00336             2.30356             1.52626             4.51039            12.00290             4.47188            13.42082             6.02471            11.88050             4.03722            24.36803             3.30257             6.74879            33.34045            34.16560             6.45534            29.15021            15.36934            18.60902             3.08259            18.35849            12.24616            58.41415             3.03123            15.12121             2.08594            29.71488           929.72360             0.84313             5.12440             2.27894             2.51500            21.73491           130.61088            32.41461             6.26038            82.56405             2.09459            15.76793            79.73836            13.17702            12.80514             2.35483            10.04408          1663.37162             1.75985             4.24278             7.16695             2.72074            11.40197             4.41481             5.00337             6.47861             9.90573            14.01182             9.62594            12.87636             5.58878             3.09737            28.51748            15.02561            14.86134             5.81043             2.50111             1.99553             6.48418             8.38979            18.63528             2.36631             2.67356            33.35571            12.55567             2.92503            10.25222            14.38834            14.27717            13.25163            55.34271             7.93550            17.50399             3.27419             9.36572            12.75340             3.41820             7.82210            24.43460            21.88017            14.92607             8.28602             6.22178             4.20779            16.97215           145.60017             4.98833             5.01418             8.31128           358.79140           949.61532             5.47069             5.57528             4.44307            23.41616            10.81172             5.61058             2.53699             7.82821             4.17089            13.26680             1.12031            15.97553             7.36658             1.28726            30.62114          1322.92413             4.80766             4.43207             4.46628            84.06626           586.73311            27.51009             1.96443            23.48164             5.97498            39.35218             5.60066             4.41991             4.67733           180.00531             2.13063             8.10165           180.36690            18.41197             5.03528           338.82714             1.10714             3.39344            73.08665             6.65897            18.72322             1.15465             4.61015            14.65355            26.54880             6.11431             2.17115             8.97802            24.35603             5.67857             7.24236             2.05236            33.62655            13.76432            18.59100             4.27736            17.15834             5.78513           369.94447            30.42871            78.76834            17.44001             2.19256             5.82719             3.88833            99.20378             3.71299            15.17838            13.07265             3.82242             2.15210             4.19178            11.46441             3.99508           218.95555            15.05982            18.33960            24.96218             5.89987             3.360