# vtk DataFile Version 3.0
Output from R2
ASCII
DATASET UNSTRUCTURED_GRID
POINTS       1414 double
     0.00000  2968.10000   0.
     1.54000  2966.60000   0.
     3.08000  2964.90000   0.
     4.61000  2964.10000   0.
     6.15000  2963.30000   0.
     7.69000  2962.60000   0.
     9.23000  2961.50000   0.
    10.76000  2960.70000   0.
    12.30000  2960.00000   0.
    13.84000  2959.30000   0.
    15.38000  2958.70000   0.
    16.91000  2958.10000   0.
    18.45000  2957.30000   0.
    19.99000  2956.60000   0.
    21.52000  2955.80000   0.
    23.06000  2955.00000   0.
    24.60000  2954.30000   0.
    26.14000  2953.50000   0.
    27.68000  2952.80000   0.
    29.21000  2951.90000   0.
    30.75000  2951.10000   0.
    32.29000  2950.20000   0.
    33.83000  2949.50000   0.
    35.36000  2948.70000   0.
    36.90000  2948.10000   0.
    38.44000  2947.30000   0.
    39.98000  2946.70000   0.
    41.51000  2946.10000   0.
    43.05000  2945.50000   0.
    44.59000  2945.10000   0.
    46.13000  2944.50000   0.
    47.66000  2944.10000   0.
    49.20000  2943.60000   0.
    50.74000  2943.40000   0.
    52.28000  2943.00000   0.
    53.81000  2942.50000   0.
    55.35000  2942.10000   0.
    56.89000  2941.60000   0.
    58.43000  2941.00000   0.
    59.96000  2940.60000   0.
    61.50000  2940.10000   0.
    63.04000  2939.50000   0.
    64.58000  2939.10000   0.
    66.11000  2939.20000   0.
    67.65000  2939.20000   0.
    69.19000  2939.10000   0.
    70.73000  2938.90000   0.
    72.26000  2938.60000   0.
    73.80000  2938.30000   0.
    75.34000  2938.50000   0.
    76.88000  2938.70000   0.
    78.41000  2938.60000   0.
    79.95000  2938.80000   0.
    81.49000  2938.90000   0.
    83.03000  2939.10000   0.
    84.56000  2939.10000   0.
     3.42000  2957.55000   0.
     8.97000  2954.51000   0.
    14.52000  2951.86000   0.
    20.07000  2949.38000   0.
    25.63000  2946.59000   0.
    31.18000  2943.67000   0.
    36.73000  2940.99000   0.
    42.28000  2938.62000   0.
    47.83000  2936.87000   0.
    53.39000  2935.46000   0.
    58.94000  2933.69000   0.
    64.49000  2931.95000   0.
    70.04000  2931.81000   0.
    75.60000  2931.36000   0.
    81.15000  2931.70000   0.
     0.51333  2967.60000   0.
     1.02667  2967.10000   0.
     2.05333  2966.03333   0.
     2.56667  2965.46667   0.
     3.59000  2964.63333   0.
     4.10000  2964.36667   0.
     5.12333  2963.83333   0.
     5.63667  2963.56667   0.
     6.66333  2963.06667   0.
     7.17667  2962.83333   0.
     8.20333  2962.23333   0.
     8.71667  2961.86667   0.
     9.74000  2961.23333   0.
    10.25000  2960.96667   0.
    11.27333  2960.46667   0.
    11.78667  2960.23333   0.
    12.81333  2959.76667   0.
    13.32667  2959.53333   0.
    14.35333  2959.10000   0.
    14.86667  2958.90000   0.
    15.89000  2958.50000   0.
    16.40000  2958.30000   0.
    17.42333  2957.83333   0.
    17.93667  2957.56667   0.
    18.96333  2957.06667   0.
    19.47667  2956.83333   0.
    20.50000  2956.33333   0.
    21.01000  2956.06667   0.
    22.03333  2955.53333   0.
    22.54667  2955.26667   0.
    23.57333  2954.76667   0.
    24.08667  2954.53333   0.
    25.11333  2954.03333   0.
    25.62667  2953.76667   0.
    26.65333  2953.26667   0.
    27.16667  2953.03333   0.
    28.19000  2952.50000   0.
    28.70000  2952.20000   0.
    29.72333  2951.63333   0.
    30.23667  2951.36667   0.
    31.26333  2950.80000   0.
    31.77667  2950.50000   0.
    32.80333  2949.96667   0.
    33.31667  2949.73333   0.
    34.34000  2949.23333   0.
    34.85000  2948.96667   0.
    35.87333  2948.50000   0.
    36.38667  2948.30000   0.
    37.41333  2947.83333   0.
    37.92667  2947.56667   0.
    38.95333  2947.10000   0.
    39.46667  2946.90000   0.
    40.49000  2946.50000   0.
    41.00000  2946.30000   0.
    42.02333  2945.90000   0.
    42.53667  2945.70000   0.
    43.56333  2945.36667   0.
    44.07667  2945.23333   0.
    45.10333  2944.90000   0.
    45.61667  2944.70000   0.
    46.64000  2944.36667   0.
    47.15000  2944.23333   0.
    48.17333  2943.93333   0.
    48.68667  2943.76667   0.
    49.71333  2943.53333   0.
    50.22667  2943.46667   0.
    51.25333  2943.26667   0.
    51.76667  2943.13333   0.
    52.79000  2942.83333   0.
    53.30000  2942.66667   0.
    54.32333  2942.36667   0.
    54.83667  2942.23333   0.
    55.86333  2941.93333   0.
    56.37667  2941.76667   0.
    57.40333  2941.40000   0.
    57.91667  2941.20000   0.
    58.94000  2940.86667   0.
    59.45000  2940.73333   0.
    60.47333  2940.43333   0.
    60.98667  2940.26667   0.
    62.01333  2939.90000   0.
    62.52667  2939.70000   0.
    63.55333  2939.36667   0.
    64.06667  2939.23333   0.
    65.34500  2939.15000   0.
    66.88000  2939.20000   0.
    68.42000  2939.15000   0.
    69.70333  2939.03333   0.
    70.21667  2938.96667   0.
    71.24000  2938.80000   0.
    71.75000  2938.70000   0.
    72.77333  2938.50000   0.
    73.28667  2938.40000   0.
    74.31333  2938.36667   0.
    74.82667  2938.43333   0.
    75.85333  2938.56667   0.
    76.36667  2938.63333   0.
    77.64500  2938.65000   0.
    78.92333  2938.66667   0.
    79.43667  2938.73333   0.
    80.72000  2938.85000   0.
    82.00333  2938.96667   0.
    82.51667  2939.03333   0.
    83.79500  2939.10000   0.
     0.08400  2959.57200   0.
     1.19600  2958.89800   0.
     2.30800  2958.22400   0.
     4.53000  2956.94200   0.
     5.64000  2956.33400   0.
     6.75000  2955.72600   0.
     7.86000  2955.11800   0.
    10.35750  2953.84750   0.
    11.74500  2953.18500   0.
    13.13250  2952.52250   0.
    15.90750  2951.24000   0.
    17.29500  2950.62000   0.
    18.68250  2950.00000   0.
    21.18200  2948.82200   0.
    22.29400  2948.26400   0.
    23.40600  2947.70600   0.
    24.51800  2947.14800   0.
    26.74000  2946.00600   0.
    27.85000  2945.42200   0.
    28.96000  2944.83800   0.
    30.07000  2944.25400   0.
    32.56750  2943.00000   0.
    33.95500  2942.33000   0.
    35.34250  2941.66000   0.
    38.11750  2940.39750   0.
    39.50500  2939.80500   0.
    40.89250  2939.21250   0.
    43.66750  2938.18250   0.
    45.05500  2937.74500   0.
    46.44250  2937.30750   0.
    49.22000  2936.51750   0.
    50.61000  2936.16500   0.
    52.00000  2935.81250   0.
    54.77750  2935.01750   0.
    56.16500  2934.57500   0.
    57.55250  2934.13250   0.
    60.32750  2933.25500   0.
    61.71500  2932.82000   0.
    63.10250  2932.38500   0.
    65.87750  2931.91500   0.
    67.26500  2931.88000   0.
    68.65250  2931.84500   0.
    71.43000  2931.69750   0.
    72.82000  2931.58500   0.
    74.21000  2931.47250   0.
    76.98750  2931.44500   0.
    78.37500  2931.53000   0.
    79.76250  2931.61500   0.
    82.53750  2931.75500   0.
    83.92500  2931.81000   0.
     6.60134  2937.05984   0.
    20.80435  2932.52560   0.
     3.78758  2946.36592   0.
    15.48523  2940.98228   0.
    29.30091  2934.50364   0.
    23.90594  2939.46561   0.
    40.87322  2931.62711   0.
     1.03219  2951.87344   0.
    10.83406  2946.32292   0.
    20.42668  2943.42459   0.
    48.80952  2930.83467   0.
    35.50309  2935.49258   0.
     7.54365  2949.73854   0.
    28.57967  2939.84283   0.
    15.90963  2945.83181   0.
    44.30452  2933.27820   0.
    -0.12722  2955.42655   0.
    24.47411  2943.04615   0.
     4.45051  2952.86019   0.
    40.01017  2935.22543   0.
    52.75593  2931.58993   0.
    13.75183  2934.27842   0.
    32.31862  2938.44653   0.
     0.40990  2931.04902   0.
    19.20708  2946.27332   0.
    57.19103  2930.55709   0.
    -0.97178  2947.27328   0.
    19.39705  2939.49643   0.
    11.08068  2950.12444   0.
    32.86215  2930.47012   0.
     7.41320  2941.82707   0.
    13.76382  2948.77946   0.
    27.17579  2942.79365   0.
     7.27112  2952.68663   0.
     2.71547  2954.94653   0.
    22.91159  2945.17994   0.
     2.00816  2941.86911   0.
    24.73355  2934.79062   0.
    47.86753  2934.00196   0.
    50.62083  2933.29089   0.
    60.15732  2930.28185   0.
    37.65425  2937.53830   0.
    44.64836  2929.77041   0.
    10.93416  2939.02064   0.
     4.26476  2949.76242   0.
    36.78915  2931.78219   0.
     7.36345  2946.13476   0.
    30.92470  2941.06806   0.
     6.19921  2931.10091   0.
    35.16618  2938.51604   0.
    16.36294  2929.87801   0.
    13.43632  2943.77014   0.
    42.64967  2935.50406   0.
    26.89596  2931.23775   0.
     1.59760  2936.73753   0.
    17.19200  2948.13905   0.
    -0.61497  2957.60981   0.
    26.49360  2937.36117   0.
     9.56799  2951.50953   0.
    17.55858  2943.77119   0.
    55.26825  2932.33039   0.
    22.03247  2936.46128   0.
    16.10828  2937.24515   0.
    22.48452  2941.40733   0.
    20.86327  2946.43955   0.
    29.71126  2937.35408   0.
    32.14062  2935.59882   0.
    45.26358  2935.44707   0.
    29.19256  2942.39482   0.
    25.22337  2944.48902   0.
    25.77440  2940.40763   0.
     5.12787  2951.33100   0.
     9.72036  2943.07255   0.
     0.63027  2944.64860   0.
     5.15669  2954.13690   0.
    33.80274  2940.56791   0.
     1.57076  2956.41210   0.
     9.31000  2947.97928   0.
     9.87726  2933.53233   0.
    53.60824  2932.85261   0.
    40.63972  2936.89193   0.
    13.47285  2946.23828   0.
    37.68088  2934.75035   0.
    46.32767  2931.88185   0.
    18.64740  2941.16071   0.
    13.09413  2950.32980   0.
    18.01744  2935.92389   0.
     0.55332  2948.73049   0.
     5.35766  2947.55011   0.
    42.44669  2933.52960   0.
    57.75733  2932.24094   0.
    23.68300  2931.83870   0.
    19.94397  2947.74183   0.
    61.81887  2931.15328   0.
[...]
POINT_DATA      1414
CELL_DATA      2568
SCALARS Resistivity(ohm.m) double 1
LOOKUP_TABLE default
          1154.89250          1726.83398          2538.73567          1111.34238           492.19230          2425.41290          1248.95479          1437.02364          1655.64351          2107.70332           812.51945          2047.83403           568.90427          2395.15786          2352.12658          1853.90606          1557.63297           475.50611           478.91132          2469.26621          1189.82404          1897.21163          1262.83914           618.10053          1862.17777           523.88577           252.76626          2351.33328          2266.35665          2477.47465           490.02480           536.72221          1640.55074           451.90118           376.44311          1562.33813           814.63389           956.59063          1223.77318          1433.35409          1832.38601           717.74302           467.30533          2397.43321           345.05583           471.00774          3005.13369           858.93492           607.17118          1011.54875          2582.26580          1856.48609          1051.43429          1564.24031          2236.80425           911.33649           370.41693          2433.65242           463.16253          1115.92648           503.49912          2190.86075           463.89585          1825.45292           262.94319          1565.21829          2196.90282          2046.43158           295.87694           707.11870           516.60585           874.07902          2091.79134           408.78917           314.54155          3040.16306          1411.02940           473.81092           317.49459          2828.41242          2661.51781          1403.90299           444.65387           480.66527          2087.68900           773.60978           345.33678          2141.14576           954.99788          1893.72397          1060.58178           372.46325          2459.54044           356.04869          1664.38337          2030.26328           521.09872          1235.22090          2244.16147          1007.11651          1522.57097           517.51834           613.61579           738.65555           934.89223          1689.80363           488.16930           975.48345          2079.96809          1308.65611           389.87820          1146.48330          2624.66649          1784.36609          2060.03514          1319.58808          1087.24653          1488.56799           458.47881           326.01839          2466.68800          1376.89914          3089.04714           721.14166           510.92121          2117.89030          2500.07978          3311.21544          1800.15469          1355.77432          2116.17343          1098.38688          1232.65420          2343.35677           841.92547          2942.38738           382.38944          1651.67344          1006.90702          1368.01704          1571.95156           496.78903           597.07073          1293.24267          1630.73582           545.03507           465.27595          1449.11400          1954.03174           549.21341          2416.54062          1924.10120           949.86260           740.39626          2401.44467           282.90255          1565.31252           451.20981          2282.47389          1275.38628          1193.07232           499.71364          2390.61475           469.93258          2346.09905           508.14283          1351.78794          1733.19180          1934.94058          1706.44989           758.82862           772.61263           675.35299           276.21232           428.55314           990.12862           791.29206          3599.69085          2759.08459          1142.81946          2395.44504          1398.81706          2021.89301           719.36952           513.92346           960.75280           848.75801           630.77305           925.29318          2568.43695          1213.99246          2498.99968           584.15405          2713.56094           271.79404           508.87816          2639.37404          2125.97439          1228.69214           431.90896           277.84029           899.21951          1768.35117          1422.78804          1736.71611          1044.40005          3871.98350          2318.45832           407.16982          2338.77414          1299.79624           576.24761           437.24733           345.81862           593.20204          1187.53189          2424.20331           519.53742          1240.63498           513.06271           951.41344          1324.41639          1116.15286           353.16005           613.23996           630.24727           365.78875           542.41310          1306.26366           327.93272          1093.73788          1975.76027          1388.96997          3052.42324          2449.87083          1618.71959          2478.30987          1418.73375          1386.45502          1347.68785          2676.22136           638.55920           950.35705           417.31748          2533.88919           264.87074          1853.99967           476.39945           453.81780          2210.68643           253.15992          1991.19349          1684.68938           662.35007          2031.07081           983.35481           630.57202           697.00015           680.51740          2986.92831           529.58186          2306.20844           485.67350           442.88674           463.17863          1602.55726           368.44786          2502.87059           887.64789          2386.16300          1044.07277          2111.40178          2498.36566          2341.16388           498.57099          1587.98126          2268.71889           495.01364           757.66255           665.31952           498.57934          1376.08066           279.91913           940.27257           952.74440          2555.52293           477.22084          2464.10862           596.70523           446.58830           996.88839           310.56048          2388.95459           640.99679          1957.03654          2440.51261          1416.33582           517.75926           449.81038           625.02550          1061.61834           458.39747          2513.58347          2632.35845           445.88132          1819.10749          1300.68143          1497.89839          1959.55990           373.86942           668.51557           545.84276           298.71543          2488.20545           827.65824           341.90864           478.44154          1175.23382          2859.11769           505.01248          3358.79273           400.19403           866.40783           423.63214           531.33865          1199.74023           468.17731          1388.43825          1043.35362          2952.41772          1749.70594          2280.34220           508.93052          1547.96617           353.34132           411.66466           577.88584           570.58185          3254.48559           571.94983          2218.79441           417.16623          2198.79338           482.57464           552.33102          1793.44038          1206.37995          1000.39545           471.13816          2273.92556           454.80809          2538.92712           755.52802           381.69259           471.20918          2128.14540           485.11860          1553.28377           325.81261           398.53599           885.25066          1501.69167           928.89022           519.63978          1336.06583           494.16873           368.37003          2498.22124          1732.55830          2740.68293           486.49846          1298.55067          1384.69757          1058.19686           294.00166          2747.30271           416.46764           514.69920           461.34413          2054.33318          1341.17516           440.34563          1777.17154          2468.17253           257.15585          1334.20116           537.17688          1353.63480           453.31111          1485.12384           682.75647           345.35834          1411.92841          1288.97097           417.72018           848.53267           560.94653          1323.49211          1712.65177          1054.67430           520.94185           610.44944          1331.37928          1448.73943          1303.39304           850.27332           533.43442           926.83428          2452.08528          1618.22687          1482.21082          2248.43104          1055.00031           623.28193          1139.16905          2480.44651           712.03733           802.54786           693.56375          1710.81806          1020.68507           393.74051          2282.81671          1409.98131          1280.69161           283.89555          1554.27927           532.25796          1378.36987           499.06964          1322.55722           488.00047           425.43553          1830.94475          1056.74606          1441.30589          1476.89424           634.07714          1897.91722          1275.09244          3599.53926           613.42671          1179.85462          1985.01149          1148.06248          1108.48843          1293.01386          1208.07156          4171.74740           829.32172          3383.70854          1538.10372          1458.24142          1212.98395          1619.31905           820.88361          2202.11518           900.99207          1359.80106           468.62742          1889.76857          1316.02483           860.04492          1322.42707          2281.61032           810.80484           909.06590          1208.12679          1618.67894          1626.80955           916.66180          1798.43328           885.03660           280.62405          1920.77354          3902.51531          1093.93286           443.24407          1491.30012           714.77287          1100.97307          1850.99348           506.95645           534.69854          2209.08493          2757.52003          1270.25815           362.80857           734.80051           772.58089          1273.68124          1172.32278          1066.56093          1505.57248           775.25377          1458.61299           743.27383          1078.03645          2619.87651          1785.32367           670.59835           327.81738           554.58392          1280.57269           756.48705          1232.53733          3696.77351          1258.61890           371.28289           484.70346          1281.87054          1213.27869           890.57437           411.97735          3255.43825          1403.32564           379.25617          3382.51751          2358.25909           466.54823          1383.99823          1245.90695          1082.74126          1215.28166          1089.10459           540.57666          1573.05721          1428.94887          1444.69252          1290.44978           675.04125          1708.64369           481.54347          1228.48593           569.42033           470.74480           697.18114          1691.72110          1123.97394           914.06136           481.74877           400.11974          1674.48852          1163.53694          3797.40160          5229.48622          3156.86814          1843.20557          1809.51003          2317.42348          3391.09286          4503.00867           676.15684          4297.63818           363.15456           996.68523          1356.44378           644.80128          4065.28402          5661.16102          1217.95948           380.37261          1899.58548          2418.63402           715.34176           767.48577          1271.41857          4313.81451          1185.43846          1903.36417          1240.10951           600.83178          1459.87634          1506.83472           444.10284          3363.37946           516.45595          1419.00941          4832.65992          3876.24774          1480.33497          5860.21943           277.54838           896.63258           497.21454          1874.07969          2621.73882          1529.81583          2823.05355          1758.15958          2217.49863           697.91806          1473.53271          1235.88194          1689.70934          6468.09735          3491.04874           986.28311          4686.70137          4366.67720           743.19517           637.85596          5694.95470          2178.92868          4272.76573          4997.79428          1447.11729           811.70462           739.69424           470.89962           760.66110          4353.86760          1471.31091           934.04954          1467.93677           314.75966           965.45683          1534.46091          3982.35396           922.63317           919.44444           732.33803           653.29584          1549.99437          1482.51076           781.01710          2916.26709          2763.38799          3319.93903          2994.46115          5516.03003          4835.13034          2361.87672           528.70717          3580.51680          1121.73153          1394.46121           665.26963          1295.80915           838.79872           351.78614          6107.80671          4785.19163          1308.33388          1578.39942          2590.84513          1944.18133          2733.44284          3021.62061           851.35751          1018.62243           529.75501          1147.58729           420.51520           509.68823           805.96929           587.50418          1927.14336          5406.04654          3078.05884          1323.08309          2300.90838          1285.33615          1613.36223          7638.82071          4995.32622          1700.88483           441.72566           627.29179          5815.19884           638.01790          3583.87942          4148.26563           944.29135          2524.75220           681.60125          1098.67538           950.11347          2259.26231          2372.42500          2651.91651           640.68946           480.84935          1026.85618           327.54403           548.24995           375.33967          3291.99723          5111.21596           467.30809          2382.42907           788.61745          2113.78997          1061.15849           917.83829           584.44796           613.23397           612.83842          1900.84794           684.33104          1227.93907           631.94547          2325.70405          1700.99544          4040.77912          2520.19404           533.55596           507.93238           310.35965          2799.89214           637.74434           722.06945          1148.15274          2619.14972          1157.29643           757.07815           470.31816          1108.48008          1142.16972          1521.62212          1262.97838           591.45387           674.46591           630.02934          2372.21730          1781.56113          1106.77965          7478.80901           944.27422           802.68910           877.74734          1265.34872          2287.47071          1394.94536          1337.35325          1541.15292          2176.15429           928.78062          5837.08792          1288.38009          2521.47410           733.73326          1039.86857          3625.56318          2981.61727           748.49100           977.72063          3074.13515           509.33011           515.31131          1176.76375          2688.02698          5452.34629          1345.99751          6746.89621          1238.54697          1533.99774          1338.83866          1036.61159           441.20938           721.65182          2483.19014           744.89034          3844.67089           642.40126          3108.59835           872.34265           659.72070          1249.78500          1793.13929          2682.58137          4802.94890          2176.68002          1283.26273          1608.03300          1289.76745          6003.44414          7091.45790          1861.82856           930.49712          2640.31523           592.11076          1003.29769           771.15886          2510.16131          1009.60551           946.97772           570.69501           599.59542          3281.65901           970.88178           701.89131          6083.26699          3546.70681          2253.42376          1381.05166          9324.74726           711.09977          2204.52226          2866.33281          1873.65196          1065.14342          2511.43506          5719.54844          1546.92894           339.20947           640.87992           874.29596          1612.51362          1587.19468           638.16550           618.23162          7189.71814           675.31445          1186.20542          1738.75447          3760.78649          5591.79457           431.92253          1244.57175           795.37925          1055.17341          1699.89265           698.69770           790.36583          1450.74956           795.74715           621.72962           409.56382           733.32396          2841.52938           514.07561          2910.84418          1501.95868          2165.01612          1168.26182          1589.52874          1414.42004           419.36997          3021.00263          1283.38397          1831.73997          1735.79862          1986.32093          5694.85977          1037.32678          5168.12344           556.52873           734.79324          1450.93390          1013.89519          7176.95081          2558.34608           796.54851          1414.78762          3817.05648          3280.90166           574.76822          4252.19128          1320.56537          2642.40629           931.84553          3785.91477          3552.80826           490.77362          3634.28449          3963.20208          2188.99615          5165.00987           787.34901           717.41883          1009.91987          2578.55828           465.49799          8167.87628          4139.43468           592.55389          1513.76685          1597.16764          1800.49949           801.33838          1014.12030         12003.63498           647.73926          2114.03580          1303.80227           517.33536           770.53265          2051.37724          5015.80183          6394.54577          1443.48054          2643.52968          2283.99054          4527.25467           631.90261          1377.75453          1881.16822          1691.86465          5221.08439           557.47776          1009.37329          2791.40831           766.69636          3435.48821          2039.53595          6436.57367          2167.97868          1100.24196          1079.07884           603.35471          4963.03217          6886.11253          1943.24932           356.92412           417.62292           713.48767           767.88052          6110.00835          1196.85403          1998.51325          2857.54126          2706.11411          5526.61091          5466.76980           361.34861           585.52243           728.29654          1179.38271           567.96674          5008.65349          3282.60859          1208.85459          1012.48647           947.54369          2180.47201          3316.71163          2096.51129          1731.10929           835.12211          4075.13807          7166.66186           501.19572           627.37290          1660.56015          7283.78180          1697.59600          2862.24468          5712.50820           955.94834          1681.09279          4445.47408           548.74963          1322.40856          1076.27965          5018.49528           824.84731          1603.60442          2532.96374          6094.87779          4710.23507          5765.76261          4161.89620          4255.44612          1654.84878           733.20961          3835.68647          9264.98278           642.93088          2104.30181          2356.74558           265.66976          2020.03309          3538.23474          2549.25536           384.88295          4424.98442           799.94582          3184.32373          4137.38026          1623.44080           744.35135          2647.17532          3133.10975          5391.17926          5994.35311          5235.47637           608.29327           649.87948          1135.17747          5055.09628           988.52062          2514.12318           793.82144           689.140