# vtk DataFile Version 3.0
Output from R2
ASCII
DATASET UNSTRUCTURED_GRID
POINTS       1414 double
     0.00000  2968.10000   0.
     1.54000  2966.60000   0.
     3.08000  2964.90000   0.
     4.61000  2964.10000   0.
     6.15000  2963.30000   0.
     7.69000  2962.60000   0.
     9.23000  2961.50000   0.
    10.76000  2960.70000   0.
    12.30000  2960.00000   0.
    13.84000  2959.30000   0.
    15.38000  2958.70000   0.
    16.91000  2958.10000   0.
    18.45000  2957.30000   0.
    19.99000  2956.60000   0.
    21.52000  2955.80000   0.
    23.06000  2955.00000   0.
    24.60000  2954.30000   0.
    26.14000  2953.50000   0.
    27.68000  2952.80000   0.
    29.21000  2951.90000   0.
    30.75000  2951.10000   0.
    32.29000  2950.20000   0.
    33.83000  2949.50000   0.
    35.36000  2948.70000   0.
    36.90000  2948.10000   0.
    38.44000  2947.30000   0.
    39.98000  2946.70000   0.
    41.51000  2946.10000   0.
    43.05000  2945.50000   0.
    44.59000  2945.10000   0.
    46.13000  2944.50000   0.
    47.66000  2944.10000   0.
    49.20000  2943.60000   0.
    50.74000  2943.40000   0.
    52.28000  2943.00000   0.
    53.81000  2942.50000   0.
    55.35000  2942.10000   0.
    56.89000  2941.60000   0.
    58.43000  2941.00000   0.
    59.96000  2940.60000   0.
    61.50000  2940.10000   0.
    63.04000  2939.50000   0.
    64.58000  2939.10000   0.
    66.11000  2939.20000   0.
    67.65000  2939.20000   0.
    69.19000  2939.10000   0.
    70.73000  2938.90000   0.
    72.26000  2938.60000   0.
    73.80000  2938.30000   0.
    75.34000  2938.50000   0.
    76.88000  2938.70000   0.
    78.41000  2938.60000   0.
    79.95000  2938.80000   0.
    81.49000  2938.90000   0.
    83.03000  2939.10000   0.
    84.56000  2939.10000   0.
     3.42000  2957.55000   0.
     8.97000  2954.51000   0.
    14.52000  2951.86000   0.
    20.07000  2949.38000   0.
    25.63000  2946.59000   0.
    31.18000  2943.67000   0.
    36.73000  2940.99000   0.
    42.28000  2938.62000   0.
    47.83000  2936.87000   0.
    53.39000  2935.46000   0.
    58.94000  2933.69000   0.
    64.49000  2931.95000   0.
    70.04000  2931.81000   0.
    75.60000  2931.36000   0.
    81.15000  2931.70000   0.
     0.51333  2967.60000   0.
     1.02667  2967.10000   0.
     2.05333  2966.03333   0.
     2.56667  2965.46667   0.
     3.59000  2964.63333   0.
     4.10000  2964.36667   0.
     5.12333  2963.83333   0.
     5.63667  2963.56667   0.
     6.66333  2963.06667   0.
     7.17667  2962.83333   0.
     8.20333  2962.23333   0.
     8.71667  2961.86667   0.
     9.74000  2961.23333   0.
    10.25000  2960.96667   0.
    11.27333  2960.46667   0.
    11.78667  2960.23333   0.
    12.81333  2959.76667   0.
    13.32667  2959.53333   0.
    14.35333  2959.10000   0.
    14.86667  2958.90000   0.
    15.89000  2958.50000   0.
    16.40000  2958.30000   0.
    17.42333  2957.83333   0.
    17.93667  2957.56667   0.
    18.96333  2957.06667   0.
    19.47667  2956.83333   0.
    20.50000  2956.33333   0.
    21.01000  2956.06667   0.
    22.03333  2955.53333   0.
    22.54667  2955.26667   0.
    23.57333  2954.76667   0.
    24.08667  2954.53333   0.
    25.11333  2954.03333   0.
    25.62667  2953.76667   0.
    26.65333  2953.26667   0.
    27.16667  2953.03333   0.
    28.19000  2952.50000   0.
    28.70000  2952.20000   0.
    29.72333  2951.63333   0.
    30.23667  2951.36667   0.
    31.26333  2950.80000   0.
    31.77667  2950.50000   0.
    32.80333  2949.96667   0.
    33.31667  2949.73333   0.
    34.34000  2949.23333   0.
    34.85000  2948.96667   0.
    35.87333  2948.50000   0.
    36.38667  2948.30000   0.
    37.41333  2947.83333   0.
    37.92667  2947.56667   0.
    38.95333  2947.10000   0.
    39.46667  2946.90000   0.
    40.49000  2946.50000   0.
    41.00000  2946.30000   0.
    42.02333  2945.90000   0.
    42.53667  2945.70000   0.
    43.56333  2945.36667   0.
    44.07667  2945.23333   0.
    45.10333  2944.90000   0.
    45.61667  2944.70000   0.
    46.64000  2944.36667   0.
    47.15000  2944.23333   0.
    48.17333  2943.93333   0.
    48.68667  2943.76667   0.
    49.71333  2943.53333   0.
    50.22667  2943.46667   0.
    51.25333  2943.26667   0.
    51.76667  2943.13333   0.
    52.79000  2942.83333   0.
    53.30000  2942.66667   0.
    54.32333  2942.36667   0.
    54.83667  2942.23333   0.
    55.86333  2941.93333   0.
    56.37667  2941.76667   0.
    57.40333  2941.40000   0.
    57.91667  2941.20000   0.
    58.94000  2940.86667   0.
    59.45000  2940.73333   0.
    60.47333  2940.43333   0.
    60.98667  2940.26667   0.
    62.01333  2939.90000   0.
    62.52667  2939.70000   0.
    63.55333  2939.36667   0.
    64.06667  2939.23333   0.
    65.34500  2939.15000   0.
    66.88000  2939.20000   0.
    68.42000  2939.15000   0.
    69.70333  2939.03333   0.
    70.21667  2938.96667   0.
    71.24000  2938.80000   0.
    71.75000  2938.70000   0.
    72.77333  2938.50000   0.
    73.28667  2938.40000   0.
    74.31333  2938.36667   0.
    74.82667  2938.43333   0.
    75.85333  2938.56667   0.
    76.36667  2938.63333   0.
    77.64500  2938.65000   0.
    78.92333  2938.66667   0.
    79.43667  2938.73333   0.
    80.72000  2938.85000   0.
    82.00333  2938.96667   0.
    82.51667  2939.03333   0.
    83.79500  2939.10000   0.
     0.08400  2959.57200   0.
     1.19600  2958.89800   0.
     2.30800  2958.22400   0.
     4.53000  2956.94200   0.
     5.64000  2956.33400   0.
     6.75000  2955.72600   0.
     7.86000  2955.11800   0.
    10.35750  2953.84750   0.
    11.74500  2953.18500   0.
    13.13250  2952.52250   0.
    15.90750  2951.24000   0.
    17.29500  2950.62000   0.
    18.68250  2950.00000   0.
    21.18200  2948.82200   0.
    22.29400  2948.26400   0.
    23.40600  2947.70600   0.
    24.51800  2947.14800   0.
    26.74000  2946.00600   0.
    27.85000  2945.42200   0.
    28.96000  2944.83800   0.
    30.07000  2944.25400   0.
    32.56750  2943.00000   0.
    33.95500  2942.33000   0.
    35.34250  2941.66000   0.
    38.11750  2940.39750   0.
    39.50500  2939.80500   0.
    40.89250  2939.21250   0.
    43.66750  2938.18250   0.
    45.05500  2937.74500   0.
    46.44250  2937.30750   0.
    49.22000  2936.51750   0.
    50.61000  2936.16500   0.
    52.00000  2935.81250   0.
    54.77750  2935.01750   0.
    56.16500  2934.57500   0.
    57.55250  2934.13250   0.
    60.32750  2933.25500   0.
    61.71500  2932.82000   0.
    63.10250  2932.38500   0.
    65.87750  2931.91500   0.
    67.26500  2931.88000   0.
    68.65250  2931.84500   0.
    71.43000  2931.69750   0.
    72.82000  2931.58500   0.
    74.21000  2931.47250   0.
    76.98750  2931.44500   0.
    78.37500  2931.53000   0.
    79.76250  2931.61500   0.
    82.53750  2931.75500   0.
    83.92500  2931.81000   0.
     6.60134  2937.05984   0.
    20.80435  2932.52560   0.
     3.78758  2946.36592   0.
    15.48523  2940.98228   0.
    29.30091  2934.50364   0.
    23.90594  2939.46561   0.
    40.87322  2931.62711   0.
     1.03219  2951.87344   0.
    10.83406  2946.32292   0.
    20.42668  2943.42459   0.
    48.80952  2930.83467   0.
    35.50309  2935.49258   0.
     7.54365  2949.73854   0.
    28.57967  2939.84283   0.
    15.90963  2945.83181   0.
    44.30452  2933.27820   0.
    -0.12722  2955.42655   0.
    24.47411  2943.04615   0.
     4.45051  2952.86019   0.
    40.01017  2935.22543   0.
    52.75593  2931.58993   0.
    13.75183  2934.27842   0.
    32.31862  2938.44653   0.
     0.40990  2931.04902   0.
    19.20708  2946.27332   0.
    57.19103  2930.55709   0.
    -0.97178  2947.27328   0.
    19.39705  2939.49643   0.
    11.08068  2950.12444   0.
    32.86215  2930.47012   0.
     7.41320  2941.82707   0.
    13.76382  2948.77946   0.
    27.17579  2942.79365   0.
     7.27112  2952.68663   0.
     2.71547  2954.94653   0.
    22.91159  2945.17994   0.
     2.00816  2941.86911   0.
    24.73355  2934.79062   0.
    47.86753  2934.00196   0.
    50.62083  2933.29089   0.
    60.15732  2930.28185   0.
    37.65425  2937.53830   0.
    44.64836  2929.77041   0.
    10.93416  2939.02064   0.
     4.26476  2949.76242   0.
    36.78915  2931.78219   0.
     7.36345  2946.13476   0.
    30.92470  2941.06806   0.
     6.19921  2931.10091   0.
    35.16618  2938.51604   0.
    16.36294  2929.87801   0.
    13.43632  2943.77014   0.
    42.64967  2935.50406   0.
    26.89596  2931.23775   0.
     1.59760  2936.73753   0.
    17.19200  2948.13905   0.
    -0.61497  2957.60981   0.
    26.49360  2937.36117   0.
     9.56799  2951.50953   0.
    17.55858  2943.77119   0.
    55.26825  2932.33039   0.
    22.03247  2936.46128   0.
    16.10828  2937.24515   0.
    22.48452  2941.40733   0.
    20.86327  2946.43955   0.
    29.71126  2937.35408   0.
    32.14062  2935.59882   0.
    45.26358  2935.44707   0.
    29.19256  2942.39482   0.
    25.22337  2944.48902   0.
    25.77440  2940.40763   0.
     5.12787  2951.33100   0.
     9.72036  2943.07255   0.
     0.63027  2944.64860   0.
     5.15669  2954.13690   0.
    33.80274  2940.56791   0.
     1.57076  2956.41210   0.
     9.31000  2947.97928   0.
     9.87726  2933.53233   0.
    53.60824  2932.85261   0.
    40.63972  2936.89193   0.
    13.47285  2946.23828   0.
    37.68088  2934.75035   0.
    46.32767  2931.88185   0.
    18.64740  2941.16071   0.
    13.09413  2950.32980   0.
    18.01744  2935.92389   0.
     0.55332  2948.73049   0.
     5.35766  2947.55011   0.
    42.44669  2933.52960   0.
    57.75733  2932.24094   0.
    23.68300  2931.83870   0.
    19.94397  2947.74183   0.
    61.81887  2931.15328   0.
[...]
POINT_DATA      1414
CELL_DATA      2568
SCALARS Resistivity(ohm.m) double 1
LOOKUP_TABLE default
          1093.60685          1740.58149          2562.47483          1057.45207           524.00391          2431.74144          1319.51164          1525.53325          1576.25304          2219.30495           775.50657          2182.07299           644.12033          2474.41984          2424.02356          2004.25887          1518.55268           455.58542           457.16702          2387.95477          1227.44588          1998.45015          1185.89538           592.08575          1886.48360           552.63094           272.30931          2389.15299          2273.78936          2557.82357           479.09668           552.97876          1633.54535           402.86242           407.37465          1746.34988           735.19933           929.83174          1142.07678          1596.72099          1779.99746           705.97301           470.24800          2447.33652           354.15478           427.86821          3144.89508           816.47318           658.03588           935.87254          2615.37768          1866.38937           978.77805          1511.52722          2499.36512           899.40126           392.21420          2495.55521           415.48386          1042.76280           555.32473          2252.41823           455.66421          1932.67641           278.63404          1469.65447          2262.41373          2133.75949           312.10442           734.49819           522.97203           784.01436          2117.13634           431.78058           342.01364          3121.45585          1363.82665           448.49533           344.42276          2947.41967          2737.27060          1450.29747           405.86901           441.65809          2138.09050           799.39102           362.18751          2131.74591           865.57867          1952.49890          1013.06683           377.34151          2471.73037           383.42185          1871.99469          2061.46961           544.07405          1164.93831          2303.47775           972.50019          1497.59886           550.05831           642.11519           727.17837           887.32913          1635.42821           502.90708           913.90555          2332.94412          1246.38114           415.98671          1120.65202          2679.92083          1824.17426          2061.79268          1202.39029          1032.95860          1440.27280           449.69917           345.33986          2395.29914          1322.76466          3227.40573           735.91418           515.09777          2183.70516          2539.54512          3453.67325          1864.68313          1449.67280          2191.30935          1046.45154          1137.13757          2416.21527           814.81243          2989.06655           405.81403          1610.32115           978.18539          1255.20493          1552.79441           514.06790           621.13275          1356.23434          1612.91472           574.87183           430.82639          1407.17306          1998.16499           584.22959          2569.79543          1936.35787           901.64771           702.10159          2424.48250           309.26714          1630.32787           404.27097          2315.79147          1182.58511          1120.47581           505.42895          2386.50681           434.89855          2435.83610           578.10658          1475.64265          1912.66812          1896.96539          1699.82705           722.57424           768.18935           698.43455           294.48428           397.44314           905.63846           811.08767          3648.99113          2796.70107          1076.01771          2406.07871          1392.47361          2085.87257           736.95459           560.85531           945.44711           861.33859           652.78646           846.20868          2662.91644          1124.43877          2587.41539           597.69591          2822.08794           287.24581           504.79998          2731.90852          2214.04913          1161.59778           415.39691           303.30004           811.44097          1814.75372          1356.47643          1886.30729          1007.12811          3875.46414          2548.14089           395.20664          2497.43783          1223.82297           611.66649           410.83581           370.22419           595.83704          1121.52492          2494.21260           511.93495          1174.04318           512.08601           861.62238          1263.52833          1055.26652           381.79548           654.57514           651.85487           394.79159           549.63375          1180.07675           328.60362          1019.19424          2200.57092          1335.75127          3069.38905          2456.71450          1667.31524          2505.91754          1395.72955          1335.46835          1285.88510          2781.64091           671.88888           941.88547           432.54569          2616.76597           288.84380          1899.08695           459.08329           455.13738          2321.92230           275.53438          2180.09157          1726.98019           684.14452          2092.19242           936.12400           668.79821           718.68257           704.26420          2978.82200           617.47068          2426.97247           482.70675           450.25456           417.03706          1618.90811           394.20969          2474.12921           895.40846          2597.13981           961.45374          2287.08358          2510.16072          2376.18736           471.06355          1576.78625          2463.17528           458.87550           704.20041           675.09640           464.26774          1285.99943           303.61780           906.73373           881.47969          2519.79345           465.72024          2429.58800           645.89022           472.75035           911.50949           337.62543          2451.66120           667.62018          2008.16118          2409.96901          1370.35406           525.79856           464.62454           643.79096          1006.76231           420.46370          2526.53410          2714.56338           400.61300          1800.54414          1216.66894          1459.83795          1945.64666           400.99011           693.02919           625.17770           310.15819          2434.16763           770.65079           371.36143           472.17041          1117.59220          2849.39516           486.31410          3405.96566           381.57658           824.43857           454.73826           531.89387          1121.64135           427.61894          1288.88955          1008.08287          3063.06167          1773.17971          2345.75378           520.87783          1541.51328           346.14233           386.79740           588.35978           615.30610          3334.97044           592.86355          2284.20544           433.45795          2270.00081           452.01566           573.38979          1784.94318          1137.01801           946.79547           421.55070          2329.71499           459.27479          2623.58122           775.05317           412.68813           451.52015          2191.29202           476.55670          1541.11768           331.44274           394.88060           808.66278          1425.89483           869.35498           538.77856          1254.44166           516.01944           399.56530          2404.64274          1778.40610          2750.03162           449.61974          1200.07903          1323.16253           984.39296           302.53916          2849.51835           389.39199           492.31254           422.59484          2109.50543          1274.15511           448.09426          1735.78310          2529.10787           280.44693          1243.73811           592.26428          1307.87050           424.27933          1463.47929           712.47392           342.25289          1331.70972          1396.31362           441.85925           792.74972           584.84606          1340.88059          1693.70988           976.95060           599.37278           637.26944          1270.20229          1334.03842          1239.75171           849.70767           573.01890           918.02426          2425.51881          1618.47553          1451.02321          2316.39220           973.56349           593.52348          1132.13807          2454.27546           689.05097           765.32179           705.74763          1742.81868           942.66354           378.54740          2341.14182          1366.99993          1215.59479           295.43028          1677.82761           600.57707          1308.14352           480.20175          1261.79654           471.28880           440.23798          2059.79116           999.32318          1393.68421          1443.34673           667.14773          1892.00162          1297.36164          3688.77458           597.27188          1110.70661          2231.65346          1080.94634          1041.61254          1181.66487          1135.31112          4086.96470           836.88986          3491.11940          1518.58078          1491.70763          1200.19932          1731.65370           813.89411          2243.20426           900.69808          1307.77021           433.54107          1932.53342          1250.80968           866.98550          1297.61022          2366.89714           812.76226           838.95651          1146.77341          1784.24484          1632.97789           821.38294          1823.19686           860.40385           293.09134          1972.46898          3856.86879          1015.27633           407.73768          1480.73190           726.09168          1071.53010          2066.94777           499.65320           530.06258          2304.30093          2850.35199          1220.86260           391.52273           693.48678           774.14556          1202.54704          1101.15182          1023.61726          1414.91552           790.16671          1358.32209           759.75922          1022.16748          2617.97771          1799.63026           682.13520           356.19817           622.59340          1215.29350           768.79774          1164.50347          3641.08186          1191.21045           364.47052           468.09711          1225.36502          1146.91454           856.83150           415.48613          3267.11005          1282.45390           377.20063          3352.52999          2408.57888           425.08325          1331.79494          1175.07451          1035.03026          1146.70475          1037.41477           554.40892          1590.56928          1334.33540          1360.87835          1277.07154           696.97457          1773.57574           457.48765          1198.85175           590.82535           433.68221           718.16285          1708.42523          1065.03883           914.17094           449.96811           408.10399          1683.81552          1100.79784          3953.38258          5308.57389          3293.09946          1842.67995          1871.23984          2488.75083          3741.78258          5047.44897           634.96468          4456.81303           393.48109          1000.62235          1249.24287           645.47331          3725.62872          5527.01453          1195.39568           412.39257          1922.82700          2347.19507           657.68950           782.17471          1321.60522          4450.41056          1357.74052          2121.33647          1184.04898           616.58268          1327.16547          1512.13539           506.85528          3530.73535           457.72181          1308.67211          5151.11053          4056.13825          1630.86027          5997.30503           296.90944           800.12896           440.79923          1839.72772          2643.16613          1620.83679          3091.45241          1685.58913          2130.48890           676.42165          1373.97816          1324.46111          1828.21630          6688.27555          3616.01190           889.77639          4747.37937          4301.48436           753.66162           583.82340          5615.20328          2110.36255          4424.76850          5203.78828          1375.03273           812.78041           691.01607           483.82027           733.77520          4582.08019          1518.28843           932.19246          1637.63880           334.01458           929.50978          1537.50731          4080.18792          1035.67577           905.28209           709.63633           700.04923          1517.71350          1359.52132           844.11228          3020.04208          2527.08102          3489.13840          2947.53495          5491.98231          4879.25356          2363.28497           497.91736          4058.38335          1211.78033          1506.22119           659.89906          1310.16260           845.73529           347.73602          6356.02270          4962.77416          1405.79817          1457.90687          2576.66570          1980.88141          2724.54515          2736.77375           848.68605          1109.78257           543.74065          1143.67814           377.80780           458.39118           827.65312           598.58341          1925.59461          5400.39099          3054.71156          1442.78831          2597.26213          1229.52590          1538.59343          7259.99271          4833.77974          1720.85728           393.57558           600.60660          5610.56363           599.82158          3503.41550          4039.12941           913.52428          2633.59228           666.30644          1025.05621           923.90380          2462.87658          2527.24677          2551.52177           621.59779           451.97829           983.58611           352.04543           556.47595           422.64662          3452.19808          5115.73001           523.44501          2298.60753           761.44349          2019.37849          1043.12452           900.81738           627.69604           594.01660           613.91232          1927.01256           734.95347          1173.15184           663.26035          2542.94360          1865.99683          4434.88497          2218.19528           584.85970           518.25725           328.21446          2663.44387           681.33631           698.99365          1185.15726          2349.91769          1130.32374           683.16451           485.95469          1190.61227          1164.81996          1624.77338          1352.12270           591.29309           662.08855           600.81984          2311.71100          2245.99719          1115.69181          7219.16461           924.19978           817.02542           876.58946          1435.12764          2482.80799          1559.23806          1301.36405          1467.34403          2206.87496           855.92949          6744.02282          1498.46693          2503.09770           739.23506           993.35683          3887.78607          3288.53870           724.03302          1074.97620          3215.54773           506.94034           505.63658          1151.89823          2367.22280          5648.76345          1399.74079          6432.77049          1307.56237          1502.51287          1468.72773          1013.68048           437.89480           679.92107          2395.24580           698.81692          4208.00384           623.86471          3177.17233           831.02937           693.98108          1328.20322          1913.32648          2645.41439          4532.06190          2079.52022          1299.68135          1520.79570          1162.10474          7088.07618          6751.61999          2032.87649           986.52570          2420.14578           596.57425           965.43141           792.85758          2513.77611           973.03062           946.06899           512.03307           590.20034          3161.32647          1007.25353           636.58234          5977.77651          3763.40412          2107.81488          1252.52177          9140.64557           725.41682          2209.29793          3150.58592          1937.80534          1107.14702          2633.68000          5699.87671          1485.04591           371.01799           601.66311           833.49472          1657.08884          1520.16420           643.11496           589.49301          7351.33720           680.00738          1211.05732          1758.62334          3903.87935          5651.07204           427.68049          1165.73600           762.63525           967.41202          1794.71532           677.66423           835.25835          1591.74698           811.94170           615.36367           382.00263           785.79639          2898.70202           456.85851          3007.66490          1433.73220          2224.41456          1110.59263          1575.01586          1551.77529           385.08580          3505.18562          1464.49118          1923.72603          1759.16275          2285.76579          5786.80929          1011.19910          5159.91435           524.32780           672.81270          1517.64278           982.44579          6821.73246          2563.94945           780.59348          1507.02693          3788.23880          3415.45578           542.67150          5190.02972          1355.38277          2604.89280           988.11315          4001.72348          3463.54134           450.79971          3290.96219          4186.12027          2143.93483          5202.77208           715.75129           757.59623           979.56481          2601.15280           507.34939          8486.66250          4224.49101           576.50317          1482.56160          1594.45699          1751.65941           740.95391           973.15113         12189.99353           643.51334          2033.22830          1222.07345           480.81974           768.43111          2195.59455          5001.39477          6557.78982          1533.53377          2277.91402          2089.70707          4432.27042           644.33536          1269.61084          2197.71777          1835.41871          5260.82222           568.74849           975.28010          2824.05615           746.24541          3282.59806          2058.37145          6214.23213          2482.53474          1324.22277          1068.65576           587.78798          5083.88821          6590.93995          2323.65897           317.58090           369.83567           834.48223           685.51845          5842.24121          1204.28190          2020.62181          2884.37834          2731.31921          5128.67465          5342.22546           363.12624           548.64969           701.12783          1224.17311           533.06800          4592.69126          3680.53981          1202.64506          1022.96612           907.02990          2392.54595          3477.60353          1999.04546          1832.67881           859.88500          4931.95075          7207.00553           497.14367           625.35010          1728.76727          7053.49693          1995.66825          2658.24813          5303.96108           970.09658          1778.58987          4382.45553           551.90167          1468.11850          1058.20801          5001.34648           905.49537          1791.94728          3057.11611          5454.32434          4661.23283          5601.49742          4317.78595          4261.21655          1594.73703           771.05441          3802.85774          9612.95481           636.00015          2191.57858          2460.60859           287.66222          2237.71299          3348.69489          2593.07250           380.89650          4361.56258           830.37132          3325.27611          4024.57098          1733.95071           681.49245          2623.55554          3267.11534          5340.08960          5726.52516          5171.91397           556.98847           635.14386          1117.15157          5131.85184          1037.33606          2506.69066           799.42200           715.179