# vtk DataFile Version 3.0
Output from R2
ASCII
DATASET UNSTRUCTURED_GRID
POINTS       1414 double
     0.00000  2968.10000   0.
     1.54000  2966.60000   0.
     3.08000  2964.90000   0.
     4.61000  2964.10000   0.
     6.15000  2963.30000   0.
     7.69000  2962.60000   0.
     9.23000  2961.50000   0.
    10.76000  2960.70000   0.
    12.30000  2960.00000   0.
    13.84000  2959.30000   0.
    15.38000  2958.70000   0.
    16.91000  2958.10000   0.
    18.45000  2957.30000   0.
    19.99000  2956.60000   0.
    21.52000  2955.80000   0.
    23.06000  2955.00000   0.
    24.60000  2954.30000   0.
    26.14000  2953.50000   0.
    27.68000  2952.80000   0.
    29.21000  2951.90000   0.
    30.75000  2951.10000   0.
    32.29000  2950.20000   0.
    33.83000  2949.50000   0.
    35.36000  2948.70000   0.
    36.90000  2948.10000   0.
    38.44000  2947.30000   0.
    39.98000  2946.70000   0.
    41.51000  2946.10000   0.
    43.05000  2945.50000   0.
    44.59000  2945.10000   0.
    46.13000  2944.50000   0.
    47.66000  2944.10000   0.
    49.20000  2943.60000   0.
    50.74000  2943.40000   0.
    52.28000  2943.00000   0.
    53.81000  2942.50000   0.
    55.35000  2942.10000   0.
    56.89000  2941.60000   0.
    58.43000  2941.00000   0.
    59.96000  2940.60000   0.
    61.50000  2940.10000   0.
    63.04000  2939.50000   0.
    64.58000  2939.10000   0.
    66.11000  2939.20000   0.
    67.65000  2939.20000   0.
    69.19000  2939.10000   0.
    70.73000  2938.90000   0.
    72.26000  2938.60000   0.
    73.80000  2938.30000   0.
    75.34000  2938.50000   0.
    76.88000  2938.70000   0.
    78.41000  2938.60000   0.
    79.95000  2938.80000   0.
    81.49000  2938.90000   0.
    83.03000  2939.10000   0.
    84.56000  2939.10000   0.
     3.42000  2957.55000   0.
     8.97000  2954.51000   0.
    14.52000  2951.86000   0.
    20.07000  2949.38000   0.
    25.63000  2946.59000   0.
    31.18000  2943.67000   0.
    36.73000  2940.99000   0.
    42.28000  2938.62000   0.
    47.83000  2936.87000   0.
    53.39000  2935.46000   0.
    58.94000  2933.69000   0.
    64.49000  2931.95000   0.
    70.04000  2931.81000   0.
    75.60000  2931.36000   0.
    81.15000  2931.70000   0.
     0.51333  2967.60000   0.
     1.02667  2967.10000   0.
     2.05333  2966.03333   0.
     2.56667  2965.46667   0.
     3.59000  2964.63333   0.
     4.10000  2964.36667   0.
     5.12333  2963.83333   0.
     5.63667  2963.56667   0.
     6.66333  2963.06667   0.
     7.17667  2962.83333   0.
     8.20333  2962.23333   0.
     8.71667  2961.86667   0.
     9.74000  2961.23333   0.
    10.25000  2960.96667   0.
    11.27333  2960.46667   0.
    11.78667  2960.23333   0.
    12.81333  2959.76667   0.
    13.32667  2959.53333   0.
    14.35333  2959.10000   0.
    14.86667  2958.90000   0.
    15.89000  2958.50000   0.
    16.40000  2958.30000   0.
    17.42333  2957.83333   0.
    17.93667  2957.56667   0.
    18.96333  2957.06667   0.
    19.47667  2956.83333   0.
    20.50000  2956.33333   0.
    21.01000  2956.06667   0.
    22.03333  2955.53333   0.
    22.54667  2955.26667   0.
    23.57333  2954.76667   0.
    24.08667  2954.53333   0.
    25.11333  2954.03333   0.
    25.62667  2953.76667   0.
    26.65333  2953.26667   0.
    27.16667  2953.03333   0.
    28.19000  2952.50000   0.
    28.70000  2952.20000   0.
    29.72333  2951.63333   0.
    30.23667  2951.36667   0.
    31.26333  2950.80000   0.
    31.77667  2950.50000   0.
    32.80333  2949.96667   0.
    33.31667  2949.73333   0.
    34.34000  2949.23333   0.
    34.85000  2948.96667   0.
    35.87333  2948.50000   0.
    36.38667  2948.30000   0.
    37.41333  2947.83333   0.
    37.92667  2947.56667   0.
    38.95333  2947.10000   0.
    39.46667  2946.90000   0.
    40.49000  2946.50000   0.
    41.00000  2946.30000   0.
    42.02333  2945.90000   0.
    42.53667  2945.70000   0.
    43.56333  2945.36667   0.
    44.07667  2945.23333   0.
    45.10333  2944.90000   0.
    45.61667  2944.70000   0.
    46.64000  2944.36667   0.
    47.15000  2944.23333   0.
    48.17333  2943.93333   0.
    48.68667  2943.76667   0.
    49.71333  2943.53333   0.
    50.22667  2943.46667   0.
    51.25333  2943.26667   0.
    51.76667  2943.13333   0.
    52.79000  2942.83333   0.
    53.30000  2942.66667   0.
    54.32333  2942.36667   0.
    54.83667  2942.23333   0.
    55.86333  2941.93333   0.
    56.37667  2941.76667   0.
    57.40333  2941.40000   0.
    57.91667  2941.20000   0.
    58.94000  2940.86667   0.
    59.45000  2940.73333   0.
    60.47333  2940.43333   0.
    60.98667  2940.26667   0.
    62.01333  2939.90000   0.
    62.52667  2939.70000   0.
    63.55333  2939.36667   0.
    64.06667  2939.23333   0.
    65.34500  2939.15000   0.
    66.88000  2939.20000   0.
    68.42000  2939.15000   0.
    69.70333  2939.03333   0.
    70.21667  2938.96667   0.
    71.24000  2938.80000   0.
    71.75000  2938.70000   0.
    72.77333  2938.50000   0.
    73.28667  2938.40000   0.
    74.31333  2938.36667   0.
    74.82667  2938.43333   0.
    75.85333  2938.56667   0.
    76.36667  2938.63333   0.
    77.64500  2938.65000   0.
    78.92333  2938.66667   0.
    79.43667  2938.73333   0.
    80.72000  2938.85000   0.
    82.00333  2938.96667   0.
    82.51667  2939.03333   0.
    83.79500  2939.10000   0.
     0.08400  2959.57200   0.
     1.19600  2958.89800   0.
     2.30800  2958.22400   0.
     4.53000  2956.94200   0.
     5.64000  2956.33400   0.
     6.75000  2955.72600   0.
     7.86000  2955.11800   0.
    10.35750  2953.84750   0.
    11.74500  2953.18500   0.
    13.13250  2952.52250   0.
    15.90750  2951.24000   0.
    17.29500  2950.62000   0.
    18.68250  2950.00000   0.
    21.18200  2948.82200   0.
    22.29400  2948.26400   0.
    23.40600  2947.70600   0.
    24.51800  2947.14800   0.
    26.74000  2946.00600   0.
    27.85000  2945.42200   0.
    28.96000  2944.83800   0.
    30.07000  2944.25400   0.
    32.56750  2943.00000   0.
    33.95500  2942.33000   0.
    35.34250  2941.66000   0.
    38.11750  2940.39750   0.
    39.50500  2939.80500   0.
    40.89250  2939.21250   0.
    43.66750  2938.18250   0.
    45.05500  2937.74500   0.
    46.44250  2937.30750   0.
    49.22000  2936.51750   0.
    50.61000  2936.16500   0.
    52.00000  2935.81250   0.
    54.77750  2935.01750   0.
    56.16500  2934.57500   0.
    57.55250  2934.13250   0.
    60.32750  2933.25500   0.
    61.71500  2932.82000   0.
    63.10250  2932.38500   0.
    65.87750  2931.91500   0.
    67.26500  2931.88000   0.
    68.65250  2931.84500   0.
    71.43000  2931.69750   0.
    72.82000  2931.58500   0.
    74.21000  2931.47250   0.
    76.98750  2931.44500   0.
    78.37500  2931.53000   0.
    79.76250  2931.61500   0.
    82.53750  2931.75500   0.
    83.92500  2931.81000   0.
     6.60134  2937.05984   0.
    20.80435  2932.52560   0.
     3.78758  2946.36592   0.
    15.48523  2940.98228   0.
    29.30091  2934.50364   0.
    23.90594  2939.46561   0.
    40.87322  2931.62711   0.
     1.03219  2951.87344   0.
    10.83406  2946.32292   0.
    20.42668  2943.42459   0.
    48.80952  2930.83467   0.
    35.50309  2935.49258   0.
     7.54365  2949.73854   0.
    28.57967  2939.84283   0.
    15.90963  2945.83181   0.
    44.30452  2933.27820   0.
    -0.12722  2955.42655   0.
    24.47411  2943.04615   0.
     4.45051  2952.86019   0.
    40.01017  2935.22543   0.
    52.75593  2931.58993   0.
    13.75183  2934.27842   0.
    32.31862  2938.44653   0.
     0.40990  2931.04902   0.
    19.20708  2946.27332   0.
    57.19103  2930.55709   0.
    -0.97178  2947.27328   0.
    19.39705  2939.49643   0.
    11.08068  2950.12444   0.
    32.86215  2930.47012   0.
     7.41320  2941.82707   0.
    13.76382  2948.77946   0.
    27.17579  2942.79365   0.
     7.27112  2952.68663   0.
     2.71547  2954.94653   0.
    22.91159  2945.17994   0.
     2.00816  2941.86911   0.
    24.73355  2934.79062   0.
    47.86753  2934.00196   0.
    50.62083  2933.29089   0.
    60.15732  2930.28185   0.
    37.65425  2937.53830   0.
    44.64836  2929.77041   0.
    10.93416  2939.02064   0.
     4.26476  2949.76242   0.
    36.78915  2931.78219   0.
     7.36345  2946.13476   0.
    30.92470  2941.06806   0.
     6.19921  2931.10091   0.
    35.16618  2938.51604   0.
    16.36294  2929.87801   0.
    13.43632  2943.77014   0.
    42.64967  2935.50406   0.
    26.89596  2931.23775   0.
     1.59760  2936.73753   0.
    17.19200  2948.13905   0.
    -0.61497  2957.60981   0.
    26.49360  2937.36117   0.
     9.56799  2951.50953   0.
    17.55858  2943.77119   0.
    55.26825  2932.33039   0.
    22.03247  2936.46128   0.
    16.10828  2937.24515   0.
    22.48452  2941.40733   0.
    20.86327  2946.43955   0.
    29.71126  2937.35408   0.
    32.14062  2935.59882   0.
    45.26358  2935.44707   0.
    29.19256  2942.39482   0.
    25.22337  2944.48902   0.
    25.77440  2940.40763   0.
     5.12787  2951.33100   0.
     9.72036  2943.07255   0.
     0.63027  2944.64860   0.
     5.15669  2954.13690   0.
    33.80274  2940.56791   0.
     1.57076  2956.41210   0.
     9.31000  2947.97928   0.
     9.87726  2933.53233   0.
    53.60824  2932.85261   0.
    40.63972  2936.89193   0.
    13.47285  2946.23828   0.
    37.68088  2934.75035   0.
    46.32767  2931.88185   0.
    18.64740  2941.16071   0.
    13.09413  2950.32980   0.
    18.01744  2935.92389   0.
     0.55332  2948.73049   0.
     5.35766  2947.55011   0.
    42.44669  2933.52960   0.
    57.75733  2932.24094   0.
    23.68300  2931.83870   0.
    19.94397  2947.74183   0.
    61.81887  2931.15328   0.
[...]
POINT_DATA      1414
CELL_DATA      2568
SCALARS Resistivity(ohm.m) double 1
LOOKUP_TABLE default
          1168.35423          1374.68907          2113.43661          1137.44030           416.54851          1980.62767          1553.25150          1715.33610          1459.14638          1596.96645          1087.49488          1620.61300           673.48241          2345.85712          2308.76985          1720.08264          1285.69137           454.58218           452.08105          2365.73399          1435.21323          1561.81563          1090.25217           602.18230          1566.31289           621.45874           261.23968          1903.79729          2247.03533          1974.05408           451.42390           628.85964          1320.70074           428.13666           400.67906          1880.20357           883.21163          1148.43333          1065.23892          1801.26873          1671.76844           920.62564           500.31266          2416.61540           382.50003           465.59495          3143.99640          1157.20662           733.75994          1120.84706          2686.25860          1608.96835          1358.78468          1314.39723          2084.65928          1079.71940           404.16198          1904.05138           488.23379          1378.31440           470.50631          2028.50497           448.66278          1611.41886           279.23411          1359.29740          1789.36099          1540.52749           323.04813           759.38516           586.27715           979.54886          1967.85665           444.45979           319.85528          3202.63767          1239.30626           444.94659           311.18566          2957.60395          2771.88793          1665.54392           483.11618           484.19240          1877.62270           836.78093           379.84792          2077.55934          1076.75935          1446.10087          1211.61415           412.49895          1980.31210           357.78311          1979.21427          1850.02473           512.05386          1393.31603          2148.38305          1162.69527          1244.43017           498.40952           679.01398           973.15314           855.03997          1479.29252           404.95215          1284.60845          2050.99278          1404.38578           395.22743          1405.51253          2723.62562          1397.42630          1950.33138          1108.95187          1323.92318          1221.92189           485.76252           356.42545          2239.59414          1194.35930          3239.22469           905.35827           491.13010          1741.74059          2563.57060          3464.03303          1476.29593          1682.84521          1630.94650          1092.94510          1048.66560          2227.88778          1119.14974          3102.62722           382.85558          1411.37974          1125.20348          1152.41104          1266.34286           443.30935           638.28472          1617.10502          1335.28115           555.26793           436.42059          1197.77912          1634.97344           648.48992          1938.75024          1718.45900          1233.34017           880.07055          2204.81697           287.14402          1657.96800           420.31315          2256.28657          1074.09294          1426.23241           451.22625          2420.48382           384.31264          1792.23664           502.61203          1702.44884          1850.53107          1802.32189          1415.80848           956.55589          1010.82405           783.10505           296.81612           465.08340          1274.36276           879.06949          3786.94758          2892.14801          1316.91896          2101.37709          1595.46996          1583.68711           871.60917           507.11451          1077.26992           949.20403           686.51292          1201.22384          2622.10183          1046.64060          2508.42516           613.39695          2817.05593           292.92196           522.31448          2719.72041          1604.20106          1177.67848           463.63007           276.72127          1074.79221          1426.25106          1175.70399          1770.59804          1120.36587          4069.38632          1984.81335           446.25296          1836.14226          1100.53369           624.19206           463.55994           374.31524           631.56169          1148.90465          2435.79326           576.31890          1224.82307           490.18291          1134.25006          1357.55998          1270.66420           377.48793           737.06387           669.74168           360.98566           566.22729          1098.89452           361.92808          1398.99650          1922.62274          1175.82746          3230.31990          2359.29546          1585.48400          2450.76576          1545.92495          1366.65876          1146.10309          2768.79883           802.08313          1041.52664           455.25753          2552.46826           272.37737          1433.69757           387.78416           440.72802          1664.69871           258.02962          1793.56717          1502.76968           720.76871          1631.51858          1237.65815           747.77586           776.39655           854.63245          3161.88017           592.75047          1757.26181           463.91392           480.53536           461.85317          1487.93834           399.04608          2075.77490           974.29175          2021.08572          1355.66415          1740.10237          2565.92920          1969.47017           524.32340          1274.42249          1845.28778           503.95296           855.58540           802.57047           504.03612          1149.33138           294.60135          1175.05381          1273.05735          2151.71699           492.34180          2414.34658           723.41899           439.56684          1245.05399           325.10240          2270.57410           680.41617          1586.46385          2137.24292          1311.08450           493.97940           487.30413           670.84027          1232.22890           449.78991          2556.16344          2722.70782           405.72554          1613.46345          1092.58414          1220.07612          1816.77863           370.79350           719.44431           633.34407           328.89527          2122.86443          1066.74131           360.86344           372.89721          1486.69770          3015.41897           540.52120          3545.26219           448.03533           803.00556           418.25264           530.65663          1067.79742           420.36666          1165.64853          1080.44273          3095.74270          1372.38906          1783.26304           541.82433          1436.56347           395.65023           454.93111           600.86249           639.40478          3428.40602           645.70631          1963.24576           411.85531          1728.22209           442.78130           559.60376          1555.68347          1341.39240           903.07470           449.29841          1918.49285           440.03488          2593.12394           853.31645           394.90138           476.19768          1820.51274           423.33721          1369.82232           362.27276           439.24929          1119.94608          1266.97160          1244.61133           553.51353          1114.25305           529.10194           385.68742          2231.31653          1459.83549          2873.92174           476.67755          1088.27264          1147.98929          1327.08870           321.14375          2859.15218           464.19513           553.15897           421.86125          1772.37345          1127.66195           431.90329          1584.41421          2428.05294           255.87731          1114.25247           575.54654          1506.30193           461.15202          1459.29848           724.49994           386.32460          1176.05455          1615.45519           412.01408          1123.40060           594.47672          1619.28157          1455.46674          1377.51510           558.31081           645.99563          1172.81183          1236.30163          1187.19155          1017.81616           641.90747          1064.51381          2075.99274          1325.42741          1316.76816          2069.13438          1381.19540           600.06245          1364.85169          2517.53677           833.40148           752.80789           899.30871          1414.59877          1348.66281           435.84950          2010.08700          1424.22418          1252.60296           309.79643          1767.06531           587.43860          1142.60933           465.99182          1232.06759           459.15041           416.42347          2015.41973          1280.56320          1184.83146          1275.43430           787.68704          1712.75844          1588.73976          3772.59613           614.60503          1104.12247          2107.89881          1072.33669          1333.58606          1085.25057          1097.27995          4393.87881           968.69869          3552.34709          1277.12400          1648.08461          1512.04318          1735.01488          1040.11335          2120.91196          1022.07431          1449.13505           436.04414          1506.66104          1142.76382           982.09016          1581.64847          1739.85007           995.44154          1204.52784          1507.19004          1843.23420          1365.23124           991.53808          1445.96052          1131.88234           301.25892          1502.95440          4117.54902          1415.31369           490.91401          1511.01355           925.14078          1268.46698          1937.44795           507.98112           508.82813          1663.95735          2888.45896          1538.25594           372.42965           815.91083           990.08957          1116.51559          1470.54278          1072.04989          1285.01368           898.88959          1238.91948           873.63531          1256.55290          2723.23227          1470.45998           836.83178           338.06962           645.33434          1303.66014           913.49146          1296.83777          3916.41232          1161.19846           413.92899           477.37782          1513.78411          1247.33713          1163.65503           451.64915          3447.45470          1190.89127           420.67641          3589.94095          2160.69430           443.27748          1260.39142          1123.50984          1154.49457          1473.82198          1199.59569           571.15420          1529.90528          1203.72194          1212.31190          1582.94916           755.56187          1563.00475           465.02863          1536.34516           602.60925           445.26338           804.18643          1345.17387          1231.12534          1014.74658           464.02405           440.07043          1325.33281          1215.14428          4076.97854          4850.40351          3227.03579          1676.21937          2015.76638          2465.95926          4758.22262          4971.97807           628.91247          4491.80253           443.82112           969.91623          1221.14373           639.82958          4233.79905          5460.75873          1154.24824           397.81280          1896.97149          2454.66181           649.88392           762.08200          1400.65364          4430.86345          1303.58428          2307.85665          1218.41197           626.18566          1277.81527          1709.66924           496.30287          3433.51829           483.53925          1333.47206          5139.57938          3939.89227          1523.25274          5689.47484           261.85862           784.38742           489.13669          1755.37241          2773.02262          1609.79402          3414.49548          1737.81350          2358.79162           703.08933          1349.60601          1453.28036          1692.01873          7043.74677          3442.55792           852.06893          4832.33919          3971.33608           799.20339           640.54969          5570.26559          2382.84520          4371.57754          5293.53268          1517.70638           785.90405           719.87402           492.67217           722.50274          5506.51621          1494.27946           901.94949          1858.56917           296.01718           905.90673          1534.38077          3748.35150           981.02976           924.15723           736.77465           696.71262          1450.30884          1461.23681           802.45318          2930.82867          2457.70915          3432.24159          2958.16661          5645.05885          5150.59539          2365.42741           554.69882          4299.74708           997.00095          1532.28717           642.35480          1434.52835           790.06389           381.85149          6881.76802          4712.18573          1495.11872          1544.33438          2684.36552          2027.60804          2717.60902          3140.54603           820.00445          1107.61248           548.54312          1062.74209           395.04005           422.70102           802.72979           570.32974          1949.93296          5613.37550          3289.10462          1515.48523          2409.55020          1197.60400          1496.79926          7697.70281          5209.54413          1779.07908           414.26420           565.28534          5597.38123           581.77637          3565.12641          3951.88413           892.45502          2312.20483           624.69609           992.52364           906.89070          2267.74652          2375.02792          2622.80141           595.85481           504.67334           965.77206           314.22722           593.61113           396.03655          3304.45723          4790.14525           535.76388          2597.25436           752.35034          2272.30727          1074.89641           907.37811           588.53454           670.28373           602.70689          2038.93466           698.61318          1204.00044           628.75209          3124.64463          2076.00364          4408.14787          2454.31772           637.89912           533.23168           290.05030          2634.21687           637.61078           658.16973          1094.65566          2644.73883          1023.07794           684.41965           505.63410          1077.36630          1109.50078          1516.01266          1416.26592           574.65064           702.19307           622.81168          2538.38817          2268.30898          1156.18428          7295.33399           906.39780           819.22737           825.64142          1350.64663          2899.36968          1769.70832          1337.64849          1509.80504          2290.04226           800.80808          7178.48525          1573.58860          2668.39384           749.36478           968.27839          3791.13972          3123.58652           815.20420           971.84700          3075.97996           521.83772           459.77809          1148.91722          2481.57888          6280.31755          1362.83943          6879.79658          1225.37075          1598.35560          1621.12460          1037.06657           484.15686           710.30799          2431.52732           767.68835          3831.28953           603.88332          3163.59304           790.08631           738.14601          1348.27187          1912.77987          2616.12911          4602.07203          2384.67932          1356.27040          1536.27270          1121.49944          6383.70539          7270.40479          2169.85759           868.50834          2699.10538           583.51882           951.72242           822.70038          2555.06719           968.44947           925.86058           587.84187           574.23113          3294.48735           961.22338           664.82679          5985.71097          4013.29919          2503.74810          1299.35302          9019.56943           776.60810          2256.11175          3299.24628          1901.50565          1063.99366          2646.41563          5408.45452          1526.71366           433.66346           608.46641           802.68682          1887.21132          1527.55311           631.41526           644.35149          6980.20852           713.94190          1204.03339          1684.81904          3778.63891          5592.16833           451.70455          1146.47644           749.19428           930.36447          2175.99007           670.85666           783.06225          1321.62490           782.53899           617.01638           399.62647           771.76750          2931.33350           545.95225          3034.94737          1462.46755          2278.95995          1101.46225          1718.80614          1762.59959           411.15751          3351.80785          1370.29565          2102.32756          1769.83102          2270.27932          5749.72168           837.95143          5316.40756           485.26527           704.22195          1218.97945           991.15702          7301.17394          2699.95920           797.34071          1401.09997          4033.01375          3224.39178           391.13931          5471.65545          1700.08432          2572.79493           916.27433          3465.72349          3925.32695           383.38241          3160.32953          3833.64102          2302.65742          5182.79027           731.57616           743.06154           985.96913          2254.33332           508.93386          8035.87574          3919.62508           418.48281          1645.46383          1598.30060          1806.60377           762.17276           955.51210         12257.58107           693.22686          2422.00971          1281.65337           505.90112           793.61247          2089.77171          4882.75899          6973.21290          1756.33675          2257.29685          2110.86723          4737.67722           686.02869          1289.29478          2091.52259          1672.60705          5201.14203           560.68486           976.17547          2770.52220           732.04447          3396.11921          2067.62021          6550.20730          2813.89626          1473.57044          1115.41861           578.79377          4992.73593          6980.05987          2604.63956           267.64414           376.87300           783.45598           684.81932          6292.54040          1240.76892          1742.99787          2821.33868          2610.40323          5195.20262          5443.29300           395.44860           509.48650           694.27251          1369.05592           592.79429          4378.32985          3623.99926          1426.96119          1029.33352           876.49073          2634.21196          3632.14375          2326.51145          1737.19505           828.02423          4376.36962          6927.48705           532.29430           545.61213          1950.60813          7201.90065          1849.02977          2912.78523          4995.49641           976.57557          1698.68136          4510.95913           525.72163          1650.55227          1087.15195          4866.26022           832.60322          1986.21686          2988.59172          5909.22953          4636.67508          5920.28729          4356.42781          4143.70164          1883.57152           711.15364          3919.78626          9083.65095           626.34052          2109.75880          2449.45554           262.59945          2498.10249          3222.10157          2593.23073           426.99875          4577.59037           794.44894          3150.63204          4035.91415          1658.84228           711.72199          2632.15232          3014.06498          5326.01557          6218.58162          5393.51250           529.64722           600.75084          1161.08106          5056.30236          1029.32839          2509.63532           823.99452           661.131