# vtk DataFile Version 3.0
Output from R2
ASCII
DATASET UNSTRUCTURED_GRID
POINTS       1414 double
     0.00000  2968.10000   0.
     1.54000  2966.60000   0.
     3.08000  2964.90000   0.
     4.61000  2964.10000   0.
     6.15000  2963.30000   0.
     7.69000  2962.60000   0.
     9.23000  2961.50000   0.
    10.76000  2960.70000   0.
    12.30000  2960.00000   0.
    13.84000  2959.30000   0.
    15.38000  2958.70000   0.
    16.91000  2958.10000   0.
    18.45000  2957.30000   0.
    19.99000  2956.60000   0.
    21.52000  2955.80000   0.
    23.06000  2955.00000   0.
    24.60000  2954.30000   0.
    26.14000  2953.50000   0.
    27.68000  2952.80000   0.
    29.21000  2951.90000   0.
    30.75000  2951.10000   0.
    32.29000  2950.20000   0.
    33.83000  2949.50000   0.
    35.36000  2948.70000   0.
    36.90000  2948.10000   0.
    38.44000  2947.30000   0.
    39.98000  2946.70000   0.
    41.51000  2946.10000   0.
    43.05000  2945.50000   0.
    44.59000  2945.10000   0.
    46.13000  2944.50000   0.
    47.66000  2944.10000   0.
    49.20000  2943.60000   0.
    50.74000  2943.40000   0.
    52.28000  2943.00000   0.
    53.81000  2942.50000   0.
    55.35000  2942.10000   0.
    56.89000  2941.60000   0.
    58.43000  2941.00000   0.
    59.96000  2940.60000   0.
    61.50000  2940.10000   0.
    63.04000  2939.50000   0.
    64.58000  2939.10000   0.
    66.11000  2939.20000   0.
    67.65000  2939.20000   0.
    69.19000  2939.10000   0.
    70.73000  2938.90000   0.
    72.26000  2938.60000   0.
    73.80000  2938.30000   0.
    75.34000  2938.50000   0.
    76.88000  2938.70000   0.
    78.41000  2938.60000   0.
    79.95000  2938.80000   0.
    81.49000  2938.90000   0.
    83.03000  2939.10000   0.
    84.56000  2939.10000   0.
     3.42000  2957.55000   0.
     8.97000  2954.51000   0.
    14.52000  2951.86000   0.
    20.07000  2949.38000   0.
    25.63000  2946.59000   0.
    31.18000  2943.67000   0.
    36.73000  2940.99000   0.
    42.28000  2938.62000   0.
    47.83000  2936.87000   0.
    53.39000  2935.46000   0.
    58.94000  2933.69000   0.
    64.49000  2931.95000   0.
    70.04000  2931.81000   0.
    75.60000  2931.36000   0.
    81.15000  2931.70000   0.
     0.51333  2967.60000   0.
     1.02667  2967.10000   0.
     2.05333  2966.03333   0.
     2.56667  2965.46667   0.
     3.59000  2964.63333   0.
     4.10000  2964.36667   0.
     5.12333  2963.83333   0.
     5.63667  2963.56667   0.
     6.66333  2963.06667   0.
     7.17667  2962.83333   0.
     8.20333  2962.23333   0.
     8.71667  2961.86667   0.
     9.74000  2961.23333   0.
    10.25000  2960.96667   0.
    11.27333  2960.46667   0.
    11.78667  2960.23333   0.
    12.81333  2959.76667   0.
    13.32667  2959.53333   0.
    14.35333  2959.10000   0.
    14.86667  2958.90000   0.
    15.89000  2958.50000   0.
    16.40000  2958.30000   0.
    17.42333  2957.83333   0.
    17.93667  2957.56667   0.
    18.96333  2957.06667   0.
    19.47667  2956.83333   0.
    20.50000  2956.33333   0.
    21.01000  2956.06667   0.
    22.03333  2955.53333   0.
    22.54667  2955.26667   0.
    23.57333  2954.76667   0.
    24.08667  2954.53333   0.
    25.11333  2954.03333   0.
    25.62667  2953.76667   0.
    26.65333  2953.26667   0.
    27.16667  2953.03333   0.
    28.19000  2952.50000   0.
    28.70000  2952.20000   0.
    29.72333  2951.63333   0.
    30.23667  2951.36667   0.
    31.26333  2950.80000   0.
    31.77667  2950.50000   0.
    32.80333  2949.96667   0.
    33.31667  2949.73333   0.
    34.34000  2949.23333   0.
    34.85000  2948.96667   0.
    35.87333  2948.50000   0.
    36.38667  2948.30000   0.
    37.41333  2947.83333   0.
    37.92667  2947.56667   0.
    38.95333  2947.10000   0.
    39.46667  2946.90000   0.
    40.49000  2946.50000   0.
    41.00000  2946.30000   0.
    42.02333  2945.90000   0.
    42.53667  2945.70000   0.
    43.56333  2945.36667   0.
    44.07667  2945.23333   0.
    45.10333  2944.90000   0.
    45.61667  2944.70000   0.
    46.64000  2944.36667   0.
    47.15000  2944.23333   0.
    48.17333  2943.93333   0.
    48.68667  2943.76667   0.
    49.71333  2943.53333   0.
    50.22667  2943.46667   0.
    51.25333  2943.26667   0.
    51.76667  2943.13333   0.
    52.79000  2942.83333   0.
    53.30000  2942.66667   0.
    54.32333  2942.36667   0.
    54.83667  2942.23333   0.
    55.86333  2941.93333   0.
    56.37667  2941.76667   0.
    57.40333  2941.40000   0.
    57.91667  2941.20000   0.
    58.94000  2940.86667   0.
    59.45000  2940.73333   0.
    60.47333  2940.43333   0.
    60.98667  2940.26667   0.
    62.01333  2939.90000   0.
    62.52667  2939.70000   0.
    63.55333  2939.36667   0.
    64.06667  2939.23333   0.
    65.34500  2939.15000   0.
    66.88000  2939.20000   0.
    68.42000  2939.15000   0.
    69.70333  2939.03333   0.
    70.21667  2938.96667   0.
    71.24000  2938.80000   0.
    71.75000  2938.70000   0.
    72.77333  2938.50000   0.
    73.28667  2938.40000   0.
    74.31333  2938.36667   0.
    74.82667  2938.43333   0.
    75.85333  2938.56667   0.
    76.36667  2938.63333   0.
    77.64500  2938.65000   0.
    78.92333  2938.66667   0.
    79.43667  2938.73333   0.
    80.72000  2938.85000   0.
    82.00333  2938.96667   0.
    82.51667  2939.03333   0.
    83.79500  2939.10000   0.
     0.08400  2959.57200   0.
     1.19600  2958.89800   0.
     2.30800  2958.22400   0.
     4.53000  2956.94200   0.
     5.64000  2956.33400   0.
     6.75000  2955.72600   0.
     7.86000  2955.11800   0.
    10.35750  2953.84750   0.
    11.74500  2953.18500   0.
    13.13250  2952.52250   0.
    15.90750  2951.24000   0.
    17.29500  2950.62000   0.
    18.68250  2950.00000   0.
    21.18200  2948.82200   0.
    22.29400  2948.26400   0.
    23.40600  2947.70600   0.
    24.51800  2947.14800   0.
    26.74000  2946.00600   0.
    27.85000  2945.42200   0.
    28.96000  2944.83800   0.
    30.07000  2944.25400   0.
    32.56750  2943.00000   0.
    33.95500  2942.33000   0.
    35.34250  2941.66000   0.
    38.11750  2940.39750   0.
    39.50500  2939.80500   0.
    40.89250  2939.21250   0.
    43.66750  2938.18250   0.
    45.05500  2937.74500   0.
    46.44250  2937.30750   0.
    49.22000  2936.51750   0.
    50.61000  2936.16500   0.
    52.00000  2935.81250   0.
    54.77750  2935.01750   0.
    56.16500  2934.57500   0.
    57.55250  2934.13250   0.
    60.32750  2933.25500   0.
    61.71500  2932.82000   0.
    63.10250  2932.38500   0.
    65.87750  2931.91500   0.
    67.26500  2931.88000   0.
    68.65250  2931.84500   0.
    71.43000  2931.69750   0.
    72.82000  2931.58500   0.
    74.21000  2931.47250   0.
    76.98750  2931.44500   0.
    78.37500  2931.53000   0.
    79.76250  2931.61500   0.
    82.53750  2931.75500   0.
    83.92500  2931.81000   0.
     6.60134  2937.05984   0.
    20.80435  2932.52560   0.
     3.78758  2946.36592   0.
    15.48523  2940.98228   0.
    29.30091  2934.50364   0.
    23.90594  2939.46561   0.
    40.87322  2931.62711   0.
     1.03219  2951.87344   0.
    10.83406  2946.32292   0.
    20.42668  2943.42459   0.
    48.80952  2930.83467   0.
    35.50309  2935.49258   0.
     7.54365  2949.73854   0.
    28.57967  2939.84283   0.
    15.90963  2945.83181   0.
    44.30452  2933.27820   0.
    -0.12722  2955.42655   0.
    24.47411  2943.04615   0.
     4.45051  2952.86019   0.
    40.01017  2935.22543   0.
    52.75593  2931.58993   0.
    13.75183  2934.27842   0.
    32.31862  2938.44653   0.
     0.40990  2931.04902   0.
    19.20708  2946.27332   0.
    57.19103  2930.55709   0.
    -0.97178  2947.27328   0.
    19.39705  2939.49643   0.
    11.08068  2950.12444   0.
    32.86215  2930.47012   0.
     7.41320  2941.82707   0.
    13.76382  2948.77946   0.
    27.17579  2942.79365   0.
     7.27112  2952.68663   0.
     2.71547  2954.94653   0.
    22.91159  2945.17994   0.
     2.00816  2941.86911   0.
    24.73355  2934.79062   0.
    47.86753  2934.00196   0.
    50.62083  2933.29089   0.
    60.15732  2930.28185   0.
    37.65425  2937.53830   0.
    44.64836  2929.77041   0.
    10.93416  2939.02064   0.
     4.26476  2949.76242   0.
    36.78915  2931.78219   0.
     7.36345  2946.13476   0.
    30.92470  2941.06806   0.
     6.19921  2931.10091   0.
    35.16618  2938.51604   0.
    16.36294  2929.87801   0.
    13.43632  2943.77014   0.
    42.64967  2935.50406   0.
    26.89596  2931.23775   0.
     1.59760  2936.73753   0.
    17.19200  2948.13905   0.
    -0.61497  2957.60981   0.
    26.49360  2937.36117   0.
     9.56799  2951.50953   0.
    17.55858  2943.77119   0.
    55.26825  2932.33039   0.
    22.03247  2936.46128   0.
    16.10828  2937.24515   0.
    22.48452  2941.40733   0.
    20.86327  2946.43955   0.
    29.71126  2937.35408   0.
    32.14062  2935.59882   0.
    45.26358  2935.44707   0.
    29.19256  2942.39482   0.
    25.22337  2944.48902   0.
    25.77440  2940.40763   0.
     5.12787  2951.33100   0.
     9.72036  2943.07255   0.
     0.63027  2944.64860   0.
     5.15669  2954.13690   0.
    33.80274  2940.56791   0.
     1.57076  2956.41210   0.
     9.31000  2947.97928   0.
     9.87726  2933.53233   0.
    53.60824  2932.85261   0.
    40.63972  2936.89193   0.
    13.47285  2946.23828   0.
    37.68088  2934.75035   0.
    46.32767  2931.88185   0.
    18.64740  2941.16071   0.
    13.09413  2950.32980   0.
    18.01744  2935.92389   0.
     0.55332  2948.73049   0.
     5.35766  2947.55011   0.
    42.44669  2933.52960   0.
    57.75733  2932.24094   0.
    23.68300  2931.83870   0.
    19.94397  2947.74183   0.
    61.81887  2931.15328   0.
[...]
POINT_DATA      1414
CELL_DATA      2568
SCALARS Resistivity(ohm.m) double 1
LOOKUP_TABLE default
          1171.42473          1393.32012          2139.66468          1136.21051           426.74932          2005.35588          1563.81391          1738.36435          1422.09385          1679.71604          1064.96054          1713.92624           663.63860          2283.19766          2235.60234          1797.62057          1283.54834           489.59963           450.99316          2365.25477          1445.41049          1651.41956          1104.07475           619.64388          1545.53392           620.30611           262.36059          1926.55660          2155.16823          2024.82805           453.89125           635.08443          1334.35682           454.54278           402.95069          1895.34975           889.38100          1126.02961          1075.77121          1809.78606          1614.38375           906.32578           486.25131          2329.55229           371.42175           493.19162          3165.41441          1130.30290           723.49584          1129.06421          2681.42776          1572.55043          1336.36599          1300.85463          2112.76770          1058.25302           397.17050          1956.64977           476.32756          1363.04650           476.07151          1968.74349           481.41947          1695.48614           277.43932          1331.71714          1795.70366          1609.86152           317.95517           745.47896           591.94002           984.03736          1893.11083           435.76306           328.30371          3191.72665          1274.45882           476.32429           317.53457          2957.94605          2761.85712          1688.07400           468.23900           505.01361          1825.83095           821.72415           371.74222          1990.77290          1082.53903          1506.46608          1197.75090           399.11677          2016.32484           368.99430          1984.33799          1789.36641           516.16578          1396.79263          2075.27841          1145.64047          1279.64170           503.46923           672.80406           953.84746           838.21308          1442.79459           415.67848          1258.14107          2081.85747          1420.42356           412.16885          1409.66372          2649.82815          1461.24668          1872.48979          1104.23964          1325.41858          1228.09594           472.18456           350.82805          2242.52048          1223.22162          3261.66890           886.22263           503.96117          1738.82505          2476.77143          3515.98360          1558.40670          1697.40005          1668.93420          1091.90158          1054.08040          2174.56171          1091.81493          3062.07425           399.00472          1386.81050          1110.40320          1144.69686          1287.22905           451.60813           633.94564          1627.04521          1335.59907           556.90427           435.06346          1225.39587          1617.52304           642.25439          1998.45515          1666.87770          1206.48643           875.54607          2185.63522           292.96599          1706.57087           450.65326          2167.62380          1079.71416          1420.23701           457.53710          2325.08554           392.14930          1855.48220           504.12093          1713.16621          1896.09723          1733.97424          1405.46084           944.92337           987.20175           770.72690           294.63825           450.18744          1261.56960           862.75880          3845.92190          2825.35277          1309.00418          2097.31180          1620.23318          1608.26741           854.05998           511.32255          1060.81300           931.55458           677.81556          1185.90887          2566.11747          1053.87584          2453.36640           602.44143          2793.65033           289.49219           512.82299          2693.65485          1663.72422          1190.78773           449.12121           282.70656          1072.43760          1500.15482          1180.37220          1829.76827          1110.99625          4143.32916          2038.90045           430.44007          1911.42536          1114.03033           621.51978           450.04117           371.52079           637.03104          1157.46925          2357.53702           589.03782          1238.26837           490.81123          1133.07460          1378.88842          1261.38299           378.78243           727.17868           657.29925           367.98786           555.18849          1093.58008           353.35870          1389.63579          1977.00999          1202.19291          3190.69213          2340.61271          1646.41674          2425.89731          1575.48183          1397.83238          1168.05362          2728.10680           788.82893          1026.36718           443.24723          2510.52083           276.16000          1474.68898           397.18932           467.92124          1741.33878           261.44515          1871.82883          1575.54400           708.52529          1639.17047          1212.93490           739.23790           762.71179           838.37080          3101.04356           585.84602          1831.25650           483.99624           466.01433           454.58634          1550.55269           395.16362          2100.90673           958.18538          2064.56772          1341.60136          1829.58916          2473.24798          1973.34627           543.92706          1307.17489          1923.99875           537.12090           857.09930           794.31343           542.14162          1147.59916           296.48832          1150.21146          1248.81030          2172.10592           481.95710          2404.76478           713.84259           446.72765          1238.59988           329.98978          2228.40747           667.42032          1587.47440          2141.23648          1348.27979           497.13211           474.27928           660.78761          1239.18532           444.10019          2543.60790          2660.74643           432.54960          1566.69897          1101.33749          1235.99810          1748.48983           380.69467           706.12826           625.54782           321.41383          2139.07435          1052.27313           365.43781           385.42670          1482.26157          2940.00462           553.09780          3566.68196           433.65265           793.75466           422.57593           526.26086          1077.55299           421.61076          1159.25914          1073.24614          3085.17542          1406.47886          1819.79396           528.22714          1492.11979           382.91673           438.70547           592.71622           635.76217          3448.82730           644.01285          1930.42178           431.86458          1756.24028           465.16353           560.02867          1519.95691          1342.51008           878.66927           445.75388          1913.89760           462.21726          2526.01633           837.05324           407.02191           467.83991          1797.46557           430.16313          1424.53725           351.55660           423.82659          1108.42908          1253.48190          1217.94359           540.77672          1121.17952           517.23137           393.61000          2239.95564          1536.70883          2794.98711           515.59220          1090.64631          1163.65503          1322.12773           314.95952          2819.51339           448.35121           577.46232           449.76373          1741.25406          1144.77523           458.03350          1537.26295          2390.20877           261.08951          1116.85055           574.93544          1526.34384           451.97818          1504.25450           711.41751           372.84961          1174.28529          1625.87347           423.48082          1103.45001           581.78956          1631.45960          1431.65227          1356.63472           555.35223           633.06397          1197.28485          1220.33694          1209.47383           996.01849           635.71891          1045.13328          2091.31865          1378.80500          1362.13910          2018.72041          1362.54226           617.41513          1373.05592          2512.42322           829.35085           750.27764           881.71577          1485.89350          1326.87252           419.94337          1986.71917          1457.99687          1270.93235           304.13266          1802.40820           584.56223          1151.73442           486.42687          1256.98895           483.72792           434.52674          2032.89556          1262.20894          1204.65119          1317.44836           775.88752          1656.74704          1597.28836          3847.87796           628.17991          1112.68766          2113.09185          1077.79876          1318.75394          1083.95263          1108.65833          4441.82563           948.85384          3603.07369          1321.55770          1679.48042          1516.36378          1783.18026          1015.79202          2040.32370          1003.51752          1472.18550           468.62173          1518.55075          1164.01961           963.12119          1593.12582          1796.67441           973.01591          1184.06595          1503.04746          1874.93725          1426.25005           999.51401          1453.83028          1105.36571           297.71894          1529.59257          4159.80913          1398.18421           475.31143          1555.80819           905.18927          1277.35323          1977.90681           501.79816           521.35773          1729.31523          2891.09520          1542.61854           384.82359           818.02880           967.00658          1133.54168          1461.86763          1068.23287          1266.42638           880.96611          1224.12264           856.38548          1242.37076          2632.74057          1462.50028           824.89993           346.43098           638.45112          1319.90758           894.31589          1305.43837          3918.67418          1178.35900           398.65990           472.25081          1519.91852          1255.25637          1136.25726           436.93087          3433.33183          1178.67995           405.75366          3567.45895          2131.57734           478.99275          1293.00711          1138.78129          1147.91524          1470.46757          1191.03735           558.29786          1586.90998          1193.94630          1204.01786          1591.23486           743.40113          1637.22640           504.03382          1537.93349           589.75398           481.57597           790.14360          1398.58429          1225.63051           997.89199           503.31544           426.30337          1365.76536          1217.30163          4093.30737          4930.36264          3203.72601          1658.13610          1931.97969          2407.37607          4560.85627          5170.14012           609.26963          4413.95137           430.61443           972.19651          1236.55930           635.24213          4383.64386          5325.24346          1181.42479           395.01643          1827.72322          2477.97073           655.74203           732.89314          1434.59190          4562.06877          1228.21326          2442.84920          1225.20497           613.39581          1287.29347          1694.69730           474.19328          3486.10559           478.19841          1335.36363          5254.72126          3988.07387          1550.09364          5859.03788           269.97532           808.96947           481.20645          1712.91340          2792.23595          1610.83120          3339.02937          1687.16725          2391.95479           710.15733          1344.26507          1466.91381          1662.22971          7045.92342          3411.97852           881.47695          5004.27917          3993.44078           815.26807           621.42609          5430.27305          2414.48411          4463.42874          5467.02390          1513.02636           788.71866           721.64842           477.93780           725.65556          5427.49297          1488.58700           903.90016          1853.97197           303.76328           897.61823          1547.42348          3756.23266           936.94847           952.68287           746.03890           699.04901          1444.83329          1453.60640           772.65235          2886.57149          2496.36819          3491.85905          2899.23207          5808.79281          5047.05282          2355.14266           540.34948          4378.28436          1015.98055          1549.48362           634.79650          1457.75680           826.59644           380.72532          7134.85753          4569.33542          1524.27488          1521.32074          2711.81165          2044.44360          2746.95420          3116.82810           822.50343          1091.13659           538.92673          1001.69412           397.86796           426.92122           822.70368           563.13254          1873.82479          5370.77757          3227.77240          1532.02262          2357.41561          1222.61799          1484.11404          7739.12355          5290.46545          1760.19627           417.93865           563.30454          5490.05094           578.59977          3594.74777          3968.16964           887.70153          2287.79277           625.93859          1028.67407           905.30754          2208.20482          2314.94536          2643.53942           607.43707           488.13810           954.79863           321.73103           599.47171           385.74411          3283.14525          4650.02201           516.20728          2631.76605           727.94677          2306.70780          1087.23624           866.00361           576.97685           655.16535           609.13083          1964.79104           674.47918          1254.85232           611.21519          2997.41615          2038.86716          4205.19405          2587.65789           617.96280           520.93364           299.28008          2606.39730           653.18644           658.61606          1128.18282          2656.62503           919.13208           704.61131           507.92603          1104.12507          1131.36665          1477.40335          1431.52061           580.29287           727.90881           623.10815          2568.42453          2315.52278          1118.99130          7262.77071           907.04226           811.79917           847.84950          1315.95651          2779.22351          1774.64704          1393.96138          1406.95748          2296.85926           826.36444          7118.06945          1551.53521          2695.11979           744.53134           953.36209          3669.07978          3045.67330           795.33034           983.90354          3034.94975           513.20601           456.58023          1182.55634          2580.23766          6337.17773          1361.52726          6977.13604          1200.67701          1597.20723          1637.52339          1046.19904           478.68552           708.04105          2443.29109           776.56186          3723.59957           615.06858          3060.84417           775.60385           715.45192          1307.59649          1897.73009          2616.13103          4573.54753          2421.73152          1373.32008          1490.49338          1140.45852          6214.02010          7259.00029          2119.09272           881.14724          2737.91894           587.47829           944.94740           842.30827          2488.24083           964.81963           909.68305           569.44166           584.52307          3274.31224           950.02733           690.79681          6219.51037          3898.45657          2514.31886          1309.88331          8886.48954           789.80057          2271.37145          3180.18103          1911.66711          1047.19084          2628.83892          5196.18037          1559.97661           411.95879           605.59864           827.07040          1851.98064          1487.19247           636.09047           639.37938          6816.57509           710.04163          1169.10394          1719.88871          3772.81526          5507.55988           434.41762          1179.14058           748.53451           962.52039          2075.70534           678.55364           793.80758          1292.87209           809.77736           621.79108           394.32457           752.67439          2960.36575           530.97541          3065.07916          1490.56577          2276.17322          1159.19391          1670.62685          1763.50626           406.52128          3258.73867          1348.03334          2038.78662          1746.63705          2240.72981          5716.62516           891.08747          5502.85391           486.00980           729.58861          1247.25462           993.41319          7347.81449          2709.84646           798.92904          1471.67842          3936.32597          3200.82747           409.99800          5490.64374          1595.64815          2643.45491           964.57923          3528.14460          3867.93374           392.32901          3194.06526          3795.98635          2294.46574          5135.20905           761.24459           735.94065           988.22870          2252.19746           494.45968          7999.89015          3893.05242           437.16749          1595.31672          1521.63267          1751.60227           798.87543           945.87877         11954.56755           667.18455          2350.71332          1296.23047           503.26673           787.03105          2126.77044          4996.30042          7192.18143          1655.02945          2391.61431          2139.80025          4826.55344           688.75198          1318.54555          2062.13930          1631.34058          5150.51512           553.46603           975.25211          2764.93852           736.09420          3503.33548          2055.20125          6717.38523          2616.51616          1404.66536          1093.73419           591.94208          4913.59131          7118.37013          2322.81928           287.17862           392.04035           766.11291           682.93835          6378.14598          1255.68377          1790.43877          2772.37615          2620.39415          5151.36609          5410.33105           389.48803           512.67686           699.62138          1382.56701           605.57258          4426.09313          3653.57258          1392.40977           939.14477           863.89471          2490.13312          3627.06887          2264.90951          1750.22021           822.93392          4252.55644          6788.45488           530.09373           582.24217          1910.63201          7223.74927          1703.60153          3008.41417          5099.43470           914.09393          1657.93386          4460.25610           528.07308          1660.96462          1098.40537          4823.29165           838.90075          1972.43314          2889.69751          6099.39125          4694.86430          6088.09523          4428.94015          4130.23667          1897.87185           737.42506          3890.55049          8852.06016           628.70974          2137.85167          2428.02905           267.29133          2577.38109          3070.59711          2513.10434           428.27215          4438.62728           789.10881          3113.94335          4065.27056          1665.78242           704.09731          2672.78346          2976.23895          5239.22625          6244.27694          5578.93115           527.51777           608.00566          1159.17779          4924.39591           994.29963          2536.29281           786.70331           667.475