# vtk DataFile Version 3.0
Output from R2
ASCII
DATASET UNSTRUCTURED_GRID
POINTS       1414 double
     0.00000  2968.10000   0.
     1.54000  2966.60000   0.
     3.08000  2964.90000   0.
     4.61000  2964.10000   0.
     6.15000  2963.30000   0.
     7.69000  2962.60000   0.
     9.23000  2961.50000   0.
    10.76000  2960.70000   0.
    12.30000  2960.00000   0.
    13.84000  2959.30000   0.
    15.38000  2958.70000   0.
    16.91000  2958.10000   0.
    18.45000  2957.30000   0.
    19.99000  2956.60000   0.
    21.52000  2955.80000   0.
    23.06000  2955.00000   0.
    24.60000  2954.30000   0.
    26.14000  2953.50000   0.
    27.68000  2952.80000   0.
    29.21000  2951.90000   0.
    30.75000  2951.10000   0.
    32.29000  2950.20000   0.
    33.83000  2949.50000   0.
    35.36000  2948.70000   0.
    36.90000  2948.10000   0.
    38.44000  2947.30000   0.
    39.98000  2946.70000   0.
    41.51000  2946.10000   0.
    43.05000  2945.50000   0.
    44.59000  2945.10000   0.
    46.13000  2944.50000   0.
    47.66000  2944.10000   0.
    49.20000  2943.60000   0.
    50.74000  2943.40000   0.
    52.28000  2943.00000   0.
    53.81000  2942.50000   0.
    55.35000  2942.10000   0.
    56.89000  2941.60000   0.
    58.43000  2941.00000   0.
    59.96000  2940.60000   0.
    61.50000  2940.10000   0.
    63.04000  2939.50000   0.
    64.58000  2939.10000   0.
    66.11000  2939.20000   0.
    67.65000  2939.20000   0.
    69.19000  2939.10000   0.
    70.73000  2938.90000   0.
    72.26000  2938.60000   0.
    73.80000  2938.30000   0.
    75.34000  2938.50000   0.
    76.88000  2938.70000   0.
    78.41000  2938.60000   0.
    79.95000  2938.80000   0.
    81.49000  2938.90000   0.
    83.03000  2939.10000   0.
    84.56000  2939.10000   0.
     3.42000  2957.55000   0.
     8.97000  2954.51000   0.
    14.52000  2951.86000   0.
    20.07000  2949.38000   0.
    25.63000  2946.59000   0.
    31.18000  2943.67000   0.
    36.73000  2940.99000   0.
    42.28000  2938.62000   0.
    47.83000  2936.87000   0.
    53.39000  2935.46000   0.
    58.94000  2933.69000   0.
    64.49000  2931.95000   0.
    70.04000  2931.81000   0.
    75.60000  2931.36000   0.
    81.15000  2931.70000   0.
     0.51333  2967.60000   0.
     1.02667  2967.10000   0.
     2.05333  2966.03333   0.
     2.56667  2965.46667   0.
     3.59000  2964.63333   0.
     4.10000  2964.36667   0.
     5.12333  2963.83333   0.
     5.63667  2963.56667   0.
     6.66333  2963.06667   0.
     7.17667  2962.83333   0.
     8.20333  2962.23333   0.
     8.71667  2961.86667   0.
     9.74000  2961.23333   0.
    10.25000  2960.96667   0.
    11.27333  2960.46667   0.
    11.78667  2960.23333   0.
    12.81333  2959.76667   0.
    13.32667  2959.53333   0.
    14.35333  2959.10000   0.
    14.86667  2958.90000   0.
    15.89000  2958.50000   0.
    16.40000  2958.30000   0.
    17.42333  2957.83333   0.
    17.93667  2957.56667   0.
    18.96333  2957.06667   0.
    19.47667  2956.83333   0.
    20.50000  2956.33333   0.
    21.01000  2956.06667   0.
    22.03333  2955.53333   0.
    22.54667  2955.26667   0.
    23.57333  2954.76667   0.
    24.08667  2954.53333   0.
    25.11333  2954.03333   0.
    25.62667  2953.76667   0.
    26.65333  2953.26667   0.
    27.16667  2953.03333   0.
    28.19000  2952.50000   0.
    28.70000  2952.20000   0.
    29.72333  2951.63333   0.
    30.23667  2951.36667   0.
    31.26333  2950.80000   0.
    31.77667  2950.50000   0.
    32.80333  2949.96667   0.
    33.31667  2949.73333   0.
    34.34000  2949.23333   0.
    34.85000  2948.96667   0.
    35.87333  2948.50000   0.
    36.38667  2948.30000   0.
    37.41333  2947.83333   0.
    37.92667  2947.56667   0.
    38.95333  2947.10000   0.
    39.46667  2946.90000   0.
    40.49000  2946.50000   0.
    41.00000  2946.30000   0.
    42.02333  2945.90000   0.
    42.53667  2945.70000   0.
    43.56333  2945.36667   0.
    44.07667  2945.23333   0.
    45.10333  2944.90000   0.
    45.61667  2944.70000   0.
    46.64000  2944.36667   0.
    47.15000  2944.23333   0.
    48.17333  2943.93333   0.
    48.68667  2943.76667   0.
    49.71333  2943.53333   0.
    50.22667  2943.46667   0.
    51.25333  2943.26667   0.
    51.76667  2943.13333   0.
    52.79000  2942.83333   0.
    53.30000  2942.66667   0.
    54.32333  2942.36667   0.
    54.83667  2942.23333   0.
    55.86333  2941.93333   0.
    56.37667  2941.76667   0.
    57.40333  2941.40000   0.
    57.91667  2941.20000   0.
    58.94000  2940.86667   0.
    59.45000  2940.73333   0.
    60.47333  2940.43333   0.
    60.98667  2940.26667   0.
    62.01333  2939.90000   0.
    62.52667  2939.70000   0.
    63.55333  2939.36667   0.
    64.06667  2939.23333   0.
    65.34500  2939.15000   0.
    66.88000  2939.20000   0.
    68.42000  2939.15000   0.
    69.70333  2939.03333   0.
    70.21667  2938.96667   0.
    71.24000  2938.80000   0.
    71.75000  2938.70000   0.
    72.77333  2938.50000   0.
    73.28667  2938.40000   0.
    74.31333  2938.36667   0.
    74.82667  2938.43333   0.
    75.85333  2938.56667   0.
    76.36667  2938.63333   0.
    77.64500  2938.65000   0.
    78.92333  2938.66667   0.
    79.43667  2938.73333   0.
    80.72000  2938.85000   0.
    82.00333  2938.96667   0.
    82.51667  2939.03333   0.
    83.79500  2939.10000   0.
     0.08400  2959.57200   0.
     1.19600  2958.89800   0.
     2.30800  2958.22400   0.
     4.53000  2956.94200   0.
     5.64000  2956.33400   0.
     6.75000  2955.72600   0.
     7.86000  2955.11800   0.
    10.35750  2953.84750   0.
    11.74500  2953.18500   0.
    13.13250  2952.52250   0.
    15.90750  2951.24000   0.
    17.29500  2950.62000   0.
    18.68250  2950.00000   0.
    21.18200  2948.82200   0.
    22.29400  2948.26400   0.
    23.40600  2947.70600   0.
    24.51800  2947.14800   0.
    26.74000  2946.00600   0.
    27.85000  2945.42200   0.
    28.96000  2944.83800   0.
    30.07000  2944.25400   0.
    32.56750  2943.00000   0.
    33.95500  2942.33000   0.
    35.34250  2941.66000   0.
    38.11750  2940.39750   0.
    39.50500  2939.80500   0.
    40.89250  2939.21250   0.
    43.66750  2938.18250   0.
    45.05500  2937.74500   0.
    46.44250  2937.30750   0.
    49.22000  2936.51750   0.
    50.61000  2936.16500   0.
    52.00000  2935.81250   0.
    54.77750  2935.01750   0.
    56.16500  2934.57500   0.
    57.55250  2934.13250   0.
    60.32750  2933.25500   0.
    61.71500  2932.82000   0.
    63.10250  2932.38500   0.
    65.87750  2931.91500   0.
    67.26500  2931.88000   0.
    68.65250  2931.84500   0.
    71.43000  2931.69750   0.
    72.82000  2931.58500   0.
    74.21000  2931.47250   0.
    76.98750  2931.44500   0.
    78.37500  2931.53000   0.
    79.76250  2931.61500   0.
    82.53750  2931.75500   0.
    83.92500  2931.81000   0.
     6.60134  2937.05984   0.
    20.80435  2932.52560   0.
     3.78758  2946.36592   0.
    15.48523  2940.98228   0.
    29.30091  2934.50364   0.
    23.90594  2939.46561   0.
    40.87322  2931.62711   0.
     1.03219  2951.87344   0.
    10.83406  2946.32292   0.
    20.42668  2943.42459   0.
    48.80952  2930.83467   0.
    35.50309  2935.49258   0.
     7.54365  2949.73854   0.
    28.57967  2939.84283   0.
    15.90963  2945.83181   0.
    44.30452  2933.27820   0.
    -0.12722  2955.42655   0.
    24.47411  2943.04615   0.
     4.45051  2952.86019   0.
    40.01017  2935.22543   0.
    52.75593  2931.58993   0.
    13.75183  2934.27842   0.
    32.31862  2938.44653   0.
     0.40990  2931.04902   0.
    19.20708  2946.27332   0.
    57.19103  2930.55709   0.
    -0.97178  2947.27328   0.
    19.39705  2939.49643   0.
    11.08068  2950.12444   0.
    32.86215  2930.47012   0.
     7.41320  2941.82707   0.
    13.76382  2948.77946   0.
    27.17579  2942.79365   0.
     7.27112  2952.68663   0.
     2.71547  2954.94653   0.
    22.91159  2945.17994   0.
     2.00816  2941.86911   0.
    24.73355  2934.79062   0.
    47.86753  2934.00196   0.
    50.62083  2933.29089   0.
    60.15732  2930.28185   0.
    37.65425  2937.53830   0.
    44.64836  2929.77041   0.
    10.93416  2939.02064   0.
     4.26476  2949.76242   0.
    36.78915  2931.78219   0.
     7.36345  2946.13476   0.
    30.92470  2941.06806   0.
     6.19921  2931.10091   0.
    35.16618  2938.51604   0.
    16.36294  2929.87801   0.
    13.43632  2943.77014   0.
    42.64967  2935.50406   0.
    26.89596  2931.23775   0.
     1.59760  2936.73753   0.
    17.19200  2948.13905   0.
    -0.61497  2957.60981   0.
    26.49360  2937.36117   0.
     9.56799  2951.50953   0.
    17.55858  2943.77119   0.
    55.26825  2932.33039   0.
    22.03247  2936.46128   0.
    16.10828  2937.24515   0.
    22.48452  2941.40733   0.
    20.86327  2946.43955   0.
    29.71126  2937.35408   0.
    32.14062  2935.59882   0.
    45.26358  2935.44707   0.
    29.19256  2942.39482   0.
    25.22337  2944.48902   0.
    25.77440  2940.40763   0.
     5.12787  2951.33100   0.
     9.72036  2943.07255   0.
     0.63027  2944.64860   0.
     5.15669  2954.13690   0.
    33.80274  2940.56791   0.
     1.57076  2956.41210   0.
     9.31000  2947.97928   0.
     9.87726  2933.53233   0.
    53.60824  2932.85261   0.
    40.63972  2936.89193   0.
    13.47285  2946.23828   0.
    37.68088  2934.75035   0.
    46.32767  2931.88185   0.
    18.64740  2941.16071   0.
    13.09413  2950.32980   0.
    18.01744  2935.92389   0.
     0.55332  2948.73049   0.
     5.35766  2947.55011   0.
    42.44669  2933.52960   0.
    57.75733  2932.24094   0.
    23.68300  2931.83870   0.
    19.94397  2947.74183   0.
    61.81887  2931.15328   0.
[...]
POINT_DATA      1414
CELL_DATA      2568
SCALARS Resistivity(ohm.m) double 1
LOOKUP_TABLE default
          1083.39244          1554.70283          2349.11342          1046.16962           516.18774          2176.77240          1330.56828          1522.90303          1524.22966          1971.54643           874.03041          1980.91607           657.95134          2166.71670          2123.91309          1898.83264          1407.50622           456.95671           457.79690          2356.27072          1244.14101          1842.18112          1142.95897           638.03022          1666.77607           566.75012           276.68226          2100.89328          2080.84599          2309.84190           477.35499           579.85508          1479.12693           441.04949           404.52250          1728.19455           827.87732           959.11932          1105.95880          1590.99944          1687.50810           790.05207           469.98861          2185.53518           365.07839           470.24800          2855.75262           912.42670           693.14835          1000.76173          2534.97527          1669.72863          1065.20681          1418.19748          2364.88087           916.88981           395.66202          2228.84258           431.32939          1109.89927           547.31277          1958.81920           450.06175          1814.20753           288.71264          1438.82144          1949.86637          1878.81879           321.16936           712.26816           546.18872           880.49367          1889.04792           432.29203           329.03410          2862.41441          1300.36510           447.74251           320.67085          2692.02314          2564.02328          1459.60499           424.93565           483.29460          1863.43651           775.41969           369.64456          1966.67858           950.53372          1730.13240          1033.86181           387.74779          2223.22019           362.29249          1853.16192          1823.75144           491.78298          1198.01187          2017.14434           990.49534          1387.13149           548.43033           650.45247           812.36667           910.72177          1544.35703           496.57053          1003.18286          2235.80284          1259.31955           402.02752          1173.99147          2422.33884          1646.14033          1876.82519          1192.67259          1103.12536          1344.79823           453.00736           351.92026          2285.93710          1260.29027          2918.23122           778.12086           477.79907          1879.04867          2298.20181          3143.72259          1718.50457          1453.84452          1896.58053          1026.41194          1108.17522          2110.43323           894.24252          2765.07299           387.01437          1499.69858           981.63314          1241.63199          1420.90103           510.30699           622.99626          1372.60986          1470.16601           577.15479           435.53409          1316.23274          1740.80898           604.39997          2331.15955          1733.27406           976.32008           791.92858          2189.04017           299.29008          1598.09810           433.85674          2077.09407          1148.24891          1175.95048           501.88474          2216.26399           435.39574          2152.45111           567.71894          1475.73093          1857.97722          1781.53078          1536.46805           818.92600           833.06804           712.95984           300.95292           414.81678          1014.43126           797.44473          3487.18246          2571.80095          1111.90842          2163.52076          1408.46810          1806.68572           764.00853           559.38898           943.73979           849.40399           651.09941           959.37025          2356.37305          1093.53264          2285.97309           585.98507          2547.60031           297.29169           501.24976          2485.18603          1930.37930          1139.27332           425.24968           290.71414           916.36968          1661.62428          1285.35667          1819.78332          1001.40182          3808.48136          2361.35487           407.52964          2252.22216          1174.13349           619.53609           422.53127           372.89768           641.56883          1101.34336          2201.77363           545.38339          1159.73166           508.28279           960.90542          1259.84410          1082.66564           380.79070           684.36504           634.84999           362.78833           540.94148          1180.35515           351.71119          1112.86125          2102.01687          1264.03717          2896.73637          2292.43702          1611.10303          2332.40387          1401.78727          1314.41313          1223.73674          2479.65775           720.82111           929.43803           434.62981          2344.19347           285.11248          1675.99608           456.25955           439.52132          2048.97714           273.84889          2049.53238          1633.05767           673.90248          1806.47945           995.87874           711.51700           713.62705           748.27826          2838.49672           611.75649          2155.21410           456.27972           451.81501           428.05408          1551.51188           395.68715          2266.18327           878.10930          2392.04959          1065.44542          2103.42542          2315.46256          2091.31616           511.54139          1441.40139          2253.35725           502.86195           793.94696           738.76074           504.66727          1244.71712           303.35401           956.49353           989.19773          2332.53064           466.98505          2357.83336           676.37982           429.50661          1013.68043           333.67193          2167.10100           646.75400          1743.39448          2218.15464          1324.71935           523.47018           463.73437           636.34766          1065.87696           428.25037          2434.96709          2421.47350           420.91245          1651.36983          1172.56749          1353.79178          1787.91440           371.44379           675.84637           631.35350           322.55760          2257.93338           877.77058           367.70603           467.93958          1194.15362          2703.88410           520.11803          3220.95311           407.19425           843.20396           411.21063           526.88249          1088.73152           431.65572          1259.06053           990.81909          2763.31280          1581.72960          2041.95666           513.80297          1481.19426           369.55677           405.88080           579.88760           629.54537          3095.39878           627.29969          1975.49221           411.92991          1961.18027           447.83666           573.68273          1620.23498          1162.79752           972.22344           429.54375          2023.28551           435.85826          2321.52376           769.97956           404.31029           454.62771          1889.46144           473.71698          1461.23449           345.90763           405.60900           919.83726          1365.32820           968.79621           529.01496          1205.17641           508.38255           393.99950          2303.83921          1654.42825          2568.38975           481.79553          1169.84627          1251.55966          1075.01995           319.98726          2545.68018           412.74784           536.27116           432.05659          1827.55971          1213.41491           432.62420          1624.73740          2279.46990           273.82670          1203.85466           597.61080          1329.36794           432.43289          1431.23977           687.43501           360.30493          1277.97713          1397.96812           406.94475           900.87436           569.70465          1370.62284          1547.48410          1072.77033           594.13374           617.21950          1218.25437          1325.97190          1199.84003           868.90388           584.16041           922.11251          2214.89522          1494.23105          1382.66227          2008.73931          1075.64340           627.49923          1169.44920          2436.43582           768.87546           777.88562           771.00778          1612.84478          1045.94244           394.92426          2037.51110          1352.12516          1197.90190           309.01533          1652.87949           604.83440          1244.58251           463.10958          1226.36739           456.46117           413.48699          2012.93926          1048.36682          1304.50300          1364.63562           717.51513          1721.17086          1329.78782          3471.74135           647.51817          1084.17512          2171.44326          1053.11774          1093.40704          1165.41441          1102.98655          4176.26488           843.89560          3230.85330          1413.22415          1491.17773          1249.84371          1691.41683           861.42777          1989.11065           897.14524          1315.39835           443.48276          1689.42091          1198.22364           864.40881          1337.30048          2070.47178           843.24989           950.57745          1218.14057          1751.95892          1520.91025           906.58874          1612.60262           917.71188           308.05636          1722.09750          3859.65218          1109.11561           430.35895          1456.39292           785.52287          1111.38249          2000.50865           496.76941           496.31736          2016.72348          2666.67836          1275.08705           381.01865           776.32411           826.35286          1158.20015          1178.26473          1001.71713          1375.66053           795.30120          1330.92680           772.44248          1055.28583          2449.83683          1601.12090           748.60103           346.88789           635.89781          1210.40550           792.66204          1171.23403          3631.76882          1158.08347           380.55545           468.52876          1273.07614          1144.76981           928.73291           421.96399          3119.31904          1280.20668           389.67037          3276.39418          2128.56290           453.04752          1283.96909          1138.68201          1032.98596          1208.34306          1047.92031           543.91123          1541.30724          1298.79491          1311.06984          1320.57531           697.35717          1684.48384           469.12050          1257.14098           575.65905           453.17753           727.50751          1552.91434          1078.20490           902.93687           469.68514           414.53391          1522.62538          1100.85369          3894.10885          4677.38358          2964.13798          1819.10331          1792.87118          2434.82301          3794.46846          5014.53800           680.79639          4221.71556           364.25207           986.21174          1287.20415           661.23789          4141.45529          5785.36495          1169.40867           365.55580          1909.47098          2509.24678           750.54824           719.51081          1345.05952          4199.37407          1217.64124          2480.99672          1216.52442           620.48550          1347.22079          1539.94173           438.98659          3173.69892           460.86861          1290.51467          5271.38184          3621.33436          1633.63409          5616.54037           286.13577           862.95285           448.43416          1724.65639          2667.74539          1623.71193          2884.25661          1672.20135          2464.80869           761.68546          1389.42092          1317.97723          1724.24551          8750.17163          3136.17891           952.08732          4696.06848          3969.11777           745.73362           576.51230          5831.15376          2518.67586          4110.65321          5199.16862          1392.40029           741.36581           718.79512           452.55033           726.21717          4759.70643          1508.82837           907.68678          1648.02116           314.50747           988.06374          1556.72966          3507.65995           924.37500           891.61415           770.78647           652.71006          1446.39615          1365.53026           757.79536          2671.36819          2714.99270          3154.18486          2899.05718          5690.44211          5005.36655          2359.11353           540.52625          4694.32637          1128.25794          1509.26385           714.93367          1334.66085           782.28751           349.65400          6892.47002          4631.55759          1426.04069          1454.49936          2657.70128          1966.23365          2831.12020          2734.71447           797.36153          1093.21742           515.47285           932.47729           405.04953           459.10359           837.66244           557.60740          1907.79177          5558.26884          3325.15721          1437.97548          2493.64397          1277.11727          1493.58788          8326.53270          5142.32080          1790.62727           427.93328           654.05691          6066.07676           576.04713          3685.53718          4218.76660           962.53370          2451.96822           660.52197          1031.20550           976.49910          2356.03267          2399.62935          2593.51669           623.51836           480.44187          1087.50498           346.98301           605.36959           354.69835          2969.58861          5011.36684           474.49598          2706.05106           717.24050          2414.74880          1182.61123           789.59374           557.12802           650.93517           550.50998          1921.89580           655.53568          1319.95727           599.20456          2611.65704          1879.65538          3986.14627          2606.40219           541.17789           518.58962           319.11134          2685.78287           647.39109           716.40199          1255.21570          2608.01431           882.61958           800.61447           524.60143          1212.85382          1046.68841          1442.19055          1338.34260           543.74686           698.06027           688.31435          2568.71499          2218.39575          1110.24807          8124.09154           962.58287           717.56660           933.19881          1345.59766          2319.04610          1560.76948          1527.95479          1418.80143          2414.96261           972.24946          7531.22687          1317.83501          2638.27340           674.20513          1090.32185          3860.51044          3267.95846           711.85811          1066.43804          2757.70483           505.71306           521.92562          1143.05632          2713.30612          6168.72201          1393.65318          7247.66937          1122.18638          1569.52859          1484.70891          1148.32897           473.14295           742.01704          2480.96667           773.79130          3932.49035           639.93893          3072.50359           875.33134           612.05572          1273.04570          1942.59260          2581.66113          4741.65263          2516.87728          1434.44532          1515.38570          1180.72863          6386.23425          7600.07714          2032.67463           932.60543          2707.60576           537.18024          1062.18453           842.99039          2440.69604          1086.63146           960.48784           512.36466           557.61405          3379.81296           851.72962           770.70856          6237.47662          4021.00836          2174.84703          1252.77023          8523.15274           784.18357          2236.10578          2898.55892          1935.18299           945.01084          2702.91753          5690.91300          1669.60984           362.49372           682.08781           905.54782          1611.64519          1523.01263           565.65242           651.04409          6525.37698           686.81677          1140.11181          1861.84054          3461.66967          5796.46183           413.90077          1256.88242           768.03744          1050.97441          1697.22321           654.97648           857.09678          1469.80818           841.09903           642.12461           393.51253           764.98729          2810.92647           467.49436          2847.05414          1574.95746          2274.55611          1270.77836          1561.00195          1573.01413           408.81085          3394.55866          1378.18853          1935.43404          1694.41968          2123.41805          5980.66144           951.94637          5293.06406           571.92077           748.69203          1435.70176          1109.62145          7752.41368          2593.74121           763.76371          1559.18770          4154.77316          2939.58878           543.88599          5214.74837          1287.00549          2728.40836           990.93194          3664.78082          3668.76570           449.76753          3442.64732          4177.79824          2377.68368          5368.41635           827.79901           787.97117          1099.68871          2413.15310           469.24316          7887.23301          4235.92235           582.72232          1486.99430          1575.40151          1795.59820           808.91554          1069.93945         12325.83750           694.96703          2124.87590          1220.06037           506.24985           747.98586          2256.68413          5013.41147          6788.81702          1570.44960          2727.06773          2324.18123          4586.74039           706.87268          1283.33982          1975.57542          1675.73765          5374.50702           532.49962          1093.70725          2750.68147           725.80681          3407.10867          2026.19937          6876.90923          2036.54803          1142.90483          1111.99576           564.97538          5133.46608          7431.56806          2081.94677           369.61619           396.10474           792.29471           679.57891          6470.98621          1321.84437          1967.53673          2656.44965          2847.67065          5251.99406          5658.28914           391.85515           610.72690           693.78809          1227.94641           650.72652          4679.87141          3638.85238          1204.90671           829.97384           943.33442          2421.08247          3357.32354          2053.00890          1834.12949           726.92361          4330.68467          6907.73315           507.66741           579.76166          1754.46301          7828.29636          1881.97490          2826.80036          5155.72633           830.54259          1679.86339          4396.81435           548.42385          1467.66944          1019.62000          4934.17422           902.64211          1796.37641          3068.84716          5895.74669          4233.91001          6062.63706          4471.97465          4024.35671          1658.33868           700.32404          3834.35508          8843.67261           656.51435          2242.79680          2400.59835           287.42885          2438.95909          3165.70316          2470.88116           443.62948          4615.84982           861.52288          2833.15186          4146.22688          1776.33909           731.63123          2689.77131          3152.42294          5940.45333          6302.37612          5401.56309           551.43944           623.50113          1091.46425          4880.94966          1005.96967          2625.85076           771.82483           676.486