# vtk DataFile Version 3.0
Output from R2
ASCII
DATASET UNSTRUCTURED_GRID
POINTS       1414 double
     0.00000  2968.10000   0.
     1.54000  2966.60000   0.
     3.08000  2964.90000   0.
     4.61000  2964.10000   0.
     6.15000  2963.30000   0.
     7.69000  2962.60000   0.
     9.23000  2961.50000   0.
    10.76000  2960.70000   0.
    12.30000  2960.00000   0.
    13.84000  2959.30000   0.
    15.38000  2958.70000   0.
    16.91000  2958.10000   0.
    18.45000  2957.30000   0.
    19.99000  2956.60000   0.
    21.52000  2955.80000   0.
    23.06000  2955.00000   0.
    24.60000  2954.30000   0.
    26.14000  2953.50000   0.
    27.68000  2952.80000   0.
    29.21000  2951.90000   0.
    30.75000  2951.10000   0.
    32.29000  2950.20000   0.
    33.83000  2949.50000   0.
    35.36000  2948.70000   0.
    36.90000  2948.10000   0.
    38.44000  2947.30000   0.
    39.98000  2946.70000   0.
    41.51000  2946.10000   0.
    43.05000  2945.50000   0.
    44.59000  2945.10000   0.
    46.13000  2944.50000   0.
    47.66000  2944.10000   0.
    49.20000  2943.60000   0.
    50.74000  2943.40000   0.
    52.28000  2943.00000   0.
    53.81000  2942.50000   0.
    55.35000  2942.10000   0.
    56.89000  2941.60000   0.
    58.43000  2941.00000   0.
    59.96000  2940.60000   0.
    61.50000  2940.10000   0.
    63.04000  2939.50000   0.
    64.58000  2939.10000   0.
    66.11000  2939.20000   0.
    67.65000  2939.20000   0.
    69.19000  2939.10000   0.
    70.73000  2938.90000   0.
    72.26000  2938.60000   0.
    73.80000  2938.30000   0.
    75.34000  2938.50000   0.
    76.88000  2938.70000   0.
    78.41000  2938.60000   0.
    79.95000  2938.80000   0.
    81.49000  2938.90000   0.
    83.03000  2939.10000   0.
    84.56000  2939.10000   0.
     3.42000  2957.55000   0.
     8.97000  2954.51000   0.
    14.52000  2951.86000   0.
    20.07000  2949.38000   0.
    25.63000  2946.59000   0.
    31.18000  2943.67000   0.
    36.73000  2940.99000   0.
    42.28000  2938.62000   0.
    47.83000  2936.87000   0.
    53.39000  2935.46000   0.
    58.94000  2933.69000   0.
    64.49000  2931.95000   0.
    70.04000  2931.81000   0.
    75.60000  2931.36000   0.
    81.15000  2931.70000   0.
     0.51333  2967.60000   0.
     1.02667  2967.10000   0.
     2.05333  2966.03333   0.
     2.56667  2965.46667   0.
     3.59000  2964.63333   0.
     4.10000  2964.36667   0.
     5.12333  2963.83333   0.
     5.63667  2963.56667   0.
     6.66333  2963.06667   0.
     7.17667  2962.83333   0.
     8.20333  2962.23333   0.
     8.71667  2961.86667   0.
     9.74000  2961.23333   0.
    10.25000  2960.96667   0.
    11.27333  2960.46667   0.
    11.78667  2960.23333   0.
    12.81333  2959.76667   0.
    13.32667  2959.53333   0.
    14.35333  2959.10000   0.
    14.86667  2958.90000   0.
    15.89000  2958.50000   0.
    16.40000  2958.30000   0.
    17.42333  2957.83333   0.
    17.93667  2957.56667   0.
    18.96333  2957.06667   0.
    19.47667  2956.83333   0.
    20.50000  2956.33333   0.
    21.01000  2956.06667   0.
    22.03333  2955.53333   0.
    22.54667  2955.26667   0.
    23.57333  2954.76667   0.
    24.08667  2954.53333   0.
    25.11333  2954.03333   0.
    25.62667  2953.76667   0.
    26.65333  2953.26667   0.
    27.16667  2953.03333   0.
    28.19000  2952.50000   0.
    28.70000  2952.20000   0.
    29.72333  2951.63333   0.
    30.23667  2951.36667   0.
    31.26333  2950.80000   0.
    31.77667  2950.50000   0.
    32.80333  2949.96667   0.
    33.31667  2949.73333   0.
    34.34000  2949.23333   0.
    34.85000  2948.96667   0.
    35.87333  2948.50000   0.
    36.38667  2948.30000   0.
    37.41333  2947.83333   0.
    37.92667  2947.56667   0.
    38.95333  2947.10000   0.
    39.46667  2946.90000   0.
    40.49000  2946.50000   0.
    41.00000  2946.30000   0.
    42.02333  2945.90000   0.
    42.53667  2945.70000   0.
    43.56333  2945.36667   0.
    44.07667  2945.23333   0.
    45.10333  2944.90000   0.
    45.61667  2944.70000   0.
    46.64000  2944.36667   0.
    47.15000  2944.23333   0.
    48.17333  2943.93333   0.
    48.68667  2943.76667   0.
    49.71333  2943.53333   0.
    50.22667  2943.46667   0.
    51.25333  2943.26667   0.
    51.76667  2943.13333   0.
    52.79000  2942.83333   0.
    53.30000  2942.66667   0.
    54.32333  2942.36667   0.
    54.83667  2942.23333   0.
    55.86333  2941.93333   0.
    56.37667  2941.76667   0.
    57.40333  2941.40000   0.
    57.91667  2941.20000   0.
    58.94000  2940.86667   0.
    59.45000  2940.73333   0.
    60.47333  2940.43333   0.
    60.98667  2940.26667   0.
    62.01333  2939.90000   0.
    62.52667  2939.70000   0.
    63.55333  2939.36667   0.
    64.06667  2939.23333   0.
    65.34500  2939.15000   0.
    66.88000  2939.20000   0.
    68.42000  2939.15000   0.
    69.70333  2939.03333   0.
    70.21667  2938.96667   0.
    71.24000  2938.80000   0.
    71.75000  2938.70000   0.
    72.77333  2938.50000   0.
    73.28667  2938.40000   0.
    74.31333  2938.36667   0.
    74.82667  2938.43333   0.
    75.85333  2938.56667   0.
    76.36667  2938.63333   0.
    77.64500  2938.65000   0.
    78.92333  2938.66667   0.
    79.43667  2938.73333   0.
    80.72000  2938.85000   0.
    82.00333  2938.96667   0.
    82.51667  2939.03333   0.
    83.79500  2939.10000   0.
     0.08400  2959.57200   0.
     1.19600  2958.89800   0.
     2.30800  2958.22400   0.
     4.53000  2956.94200   0.
     5.64000  2956.33400   0.
     6.75000  2955.72600   0.
     7.86000  2955.11800   0.
    10.35750  2953.84750   0.
    11.74500  2953.18500   0.
    13.13250  2952.52250   0.
    15.90750  2951.24000   0.
    17.29500  2950.62000   0.
    18.68250  2950.00000   0.
    21.18200  2948.82200   0.
    22.29400  2948.26400   0.
    23.40600  2947.70600   0.
    24.51800  2947.14800   0.
    26.74000  2946.00600   0.
    27.85000  2945.42200   0.
    28.96000  2944.83800   0.
    30.07000  2944.25400   0.
    32.56750  2943.00000   0.
    33.95500  2942.33000   0.
    35.34250  2941.66000   0.
    38.11750  2940.39750   0.
    39.50500  2939.80500   0.
    40.89250  2939.21250   0.
    43.66750  2938.18250   0.
    45.05500  2937.74500   0.
    46.44250  2937.30750   0.
    49.22000  2936.51750   0.
    50.61000  2936.16500   0.
    52.00000  2935.81250   0.
    54.77750  2935.01750   0.
    56.16500  2934.57500   0.
    57.55250  2934.13250   0.
    60.32750  2933.25500   0.
    61.71500  2932.82000   0.
    63.10250  2932.38500   0.
    65.87750  2931.91500   0.
    67.26500  2931.88000   0.
    68.65250  2931.84500   0.
    71.43000  2931.69750   0.
    72.82000  2931.58500   0.
    74.21000  2931.47250   0.
    76.98750  2931.44500   0.
    78.37500  2931.53000   0.
    79.76250  2931.61500   0.
    82.53750  2931.75500   0.
    83.92500  2931.81000   0.
     6.60134  2937.05984   0.
    20.80435  2932.52560   0.
     3.78758  2946.36592   0.
    15.48523  2940.98228   0.
    29.30091  2934.50364   0.
    23.90594  2939.46561   0.
    40.87322  2931.62711   0.
     1.03219  2951.87344   0.
    10.83406  2946.32292   0.
    20.42668  2943.42459   0.
    48.80952  2930.83467   0.
    35.50309  2935.49258   0.
     7.54365  2949.73854   0.
    28.57967  2939.84283   0.
    15.90963  2945.83181   0.
    44.30452  2933.27820   0.
    -0.12722  2955.42655   0.
    24.47411  2943.04615   0.
     4.45051  2952.86019   0.
    40.01017  2935.22543   0.
    52.75593  2931.58993   0.
    13.75183  2934.27842   0.
    32.31862  2938.44653   0.
     0.40990  2931.04902   0.
    19.20708  2946.27332   0.
    57.19103  2930.55709   0.
    -0.97178  2947.27328   0.
    19.39705  2939.49643   0.
    11.08068  2950.12444   0.
    32.86215  2930.47012   0.
     7.41320  2941.82707   0.
    13.76382  2948.77946   0.
    27.17579  2942.79365   0.
     7.27112  2952.68663   0.
     2.71547  2954.94653   0.
    22.91159  2945.17994   0.
     2.00816  2941.86911   0.
    24.73355  2934.79062   0.
    47.86753  2934.00196   0.
    50.62083  2933.29089   0.
    60.15732  2930.28185   0.
    37.65425  2937.53830   0.
    44.64836  2929.77041   0.
    10.93416  2939.02064   0.
     4.26476  2949.76242   0.
    36.78915  2931.78219   0.
     7.36345  2946.13476   0.
    30.92470  2941.06806   0.
     6.19921  2931.10091   0.
    35.16618  2938.51604   0.
    16.36294  2929.87801   0.
    13.43632  2943.77014   0.
    42.64967  2935.50406   0.
    26.89596  2931.23775   0.
     1.59760  2936.73753   0.
    17.19200  2948.13905   0.
    -0.61497  2957.60981   0.
    26.49360  2937.36117   0.
     9.56799  2951.50953   0.
    17.55858  2943.77119   0.
    55.26825  2932.33039   0.
    22.03247  2936.46128   0.
    16.10828  2937.24515   0.
    22.48452  2941.40733   0.
    20.86327  2946.43955   0.
    29.71126  2937.35408   0.
    32.14062  2935.59882   0.
    45.26358  2935.44707   0.
    29.19256  2942.39482   0.
    25.22337  2944.48902   0.
    25.77440  2940.40763   0.
     5.12787  2951.33100   0.
     9.72036  2943.07255   0.
     0.63027  2944.64860   0.
     5.15669  2954.13690   0.
    33.80274  2940.56791   0.
     1.57076  2956.41210   0.
     9.31000  2947.97928   0.
     9.87726  2933.53233   0.
    53.60824  2932.85261   0.
    40.63972  2936.89193   0.
    13.47285  2946.23828   0.
    37.68088  2934.75035   0.
    46.32767  2931.88185   0.
    18.64740  2941.16071   0.
    13.09413  2950.32980   0.
    18.01744  2935.92389   0.
     0.55332  2948.73049   0.
     5.35766  2947.55011   0.
    42.44669  2933.52960   0.
    57.75733  2932.24094   0.
    23.68300  2931.83870   0.
    19.94397  2947.74183   0.
    61.81887  2931.15328   0.
[...]
POINT_DATA      1414
CELL_DATA      2568
SCALARS Resistivity(ohm.m) double 1
LOOKUP_TABLE default
          1185.18320          1723.64846          2391.75646          1137.41196           475.69754          2302.50496          1332.58782          1530.94623          1634.59417          2086.35863           883.85613          2051.08417           622.02211          2249.15556          2214.43314          1902.41342          1552.22043           513.80868           445.98877          2404.15348          1254.52985          1929.56833          1265.60768           574.05151          1828.49446           538.95696           255.04617          2245.10390          2170.64264          2349.94107           460.43298           555.92514          1641.01580           460.27290           386.63153          1641.01547           792.66422          1012.87004          1219.94507          1523.43581          1799.54243           774.02205           447.50762          2261.83397           336.58393           484.16726          2767.96493           937.15144           659.25996          1006.47706          2486.42022          1819.12310          1129.72321          1552.55258          2189.03679           960.11051           368.12216          2313.65681           442.93197          1191.24252           508.33188          2089.48032           504.59770          1874.30791           261.96588          1545.65755          2117.62391          2027.08123           294.75385           708.77313           532.79770           861.66351          2012.00934           404.07936           335.59024          2830.93294          1445.91736           507.19556           335.69323          2623.92352          2512.37820          1495.45942           427.35217           488.99808          2008.67506           782.18937           341.45337          2066.99773           948.86781          1894.29904          1111.93565           360.11964          2328.83306           383.89836          1718.73572          1961.44337           553.60896          1303.57455          2129.75945          1056.20532          1544.70207           520.06564           638.78039           807.39406           921.10416          1667.52065           463.05355          1054.30633          2070.89262          1375.06203           420.77099          1202.11637          2459.54438          1805.22675          1991.96927          1293.47810          1128.95340          1488.12343           434.65870           325.32502          2367.73393          1403.09123          2843.90650           783.60368           544.06936          2050.20532          2357.30528          3054.40589          1838.90894          1450.61792          2065.92269          1113.12541          1215.77967          2213.08346           920.05381          2760.06098           414.48128          1634.36998          1045.80271          1345.41098          1580.01718           481.42627           609.90987          1383.55873          1624.70598           554.86272           429.07080          1466.75309          1908.29890           542.63682          2316.21825          1874.29219          1026.20587           761.27722          2288.00957           298.27387          1647.18353           466.58959          2170.82797          1262.09502          1268.09027           478.66825          2288.64048           423.55808          2254.57739           526.19239          1447.01432          1798.03314          1891.72013          1691.62750           802.43270           846.67903           711.21136           278.27212           408.07048          1041.04688           810.48324          3406.95786          2593.54998          1205.86776          2282.52412          1484.35888          1982.56616           769.43490           526.70182           996.02988           873.82733           642.50366           976.86343          2388.67160          1201.41911          2334.73403           571.65060          2518.59447           270.73964           485.27006          2467.60864          2084.63674          1257.23045           408.43607           292.38452           912.70729          1802.92440          1419.12442          1802.92087          1074.97425          3713.18219          2255.94925           387.32800          2263.72222          1301.01553           600.98400           411.91487           349.22535           562.69949          1210.92389          2274.00230           536.20264          1279.00945           490.94701           965.88068          1383.35479          1172.88706           362.44815           668.13482           623.32608           391.07305           524.09164          1275.28673           320.56066          1155.57225          1996.15452          1408.54739          2885.88387          2348.19098          1691.54695          2366.01498          1498.96787          1444.70329          1362.18994          2480.54756           701.69516           977.11050           406.77633          2372.46450           275.34138          1848.92622           435.47233           493.89146          2160.69024           260.67069          2013.78340          1743.02791           668.29252          1982.91023          1055.04942           672.72746           713.53397           744.65430          2841.84185           574.42956          2232.93720           521.07079           426.30632           432.97073          1666.81945           370.60905          2360.78550           909.69600          2300.63197          1106.14637          2105.83656          2374.81480          2234.06348           512.12542          1603.71022          2220.29292           518.00482           756.71311           704.65418           528.08136          1363.15029           288.74737          1007.27754          1025.66937          2403.28710           451.26877          2389.79642           654.50919           478.56136          1034.39525           324.65687          2258.29697           634.08710          1918.26585          2326.52685          1464.74979           503.36373           436.82654           626.92166          1082.24987           425.35415          2425.38072          2449.75489           459.01827          1784.71478          1294.33041          1504.31388          1907.77161           402.89325           668.73723           596.94633           294.08728          2359.30011           876.63231           355.70468           438.51172          1248.84999          2722.19594           516.52890          3165.49770           392.49645           847.15063           450.89168           511.36806          1198.92337           427.87280          1371.17444          1062.36402          2729.02911          1752.91135          2194.33543           491.73369          1609.26687           343.71291           394.33028           566.65812           607.99439          3040.81063           552.62770          2120.89598           453.84244          2127.43198           503.58874           554.77283          1763.41296          1268.29017           989.64515           436.03715          2176.38929           493.16168          2366.72786           778.85310           404.92497           442.24830          2050.67935           453.39752          1603.86697           317.47080           381.38738           924.02794          1488.10048          1006.59914           505.72544          1329.47314           482.80186           386.03581          2389.11285          1779.56227          2597.49846           516.66627          1281.90203          1390.20101          1105.34988           288.67631          2543.95259           404.32506           535.47187           481.98525          1987.75859          1348.34125           480.14490          1747.94566          2330.92650           266.83348          1322.12690           568.30328          1431.21921           423.54046          1552.66727           679.17715           333.77999          1402.26157          1380.33672           451.20374           910.95867           548.47914          1412.10781          1692.37751          1131.51604           556.60469           600.48681          1355.00001          1426.91157          1331.62390           898.97089           539.97826           966.72278          2328.39855          1651.36371          1528.08909          2137.55370          1126.56599           577.52976          1188.92642          2430.31134           732.04968           776.87307           763.04000          1752.79251          1095.01499           375.93568          2177.43796          1475.71165          1323.28300           280.06298          1640.58281           572.39074          1376.92122           526.75045          1359.71673           520.80466           462.03532          1864.84970          1124.08858          1451.48309          1514.73432           691.07356          1853.13414          1360.53991          3380.78082           573.43150          1191.66879          1980.36840          1152.11582          1177.93009          1268.95732          1216.38265          4069.89787           868.27196          3151.13334          1569.62808          1546.38690          1286.96180          1699.38823           886.71474          2100.19426           934.75272          1430.36874           496.77537          1864.93197          1332.43750           893.18031          1407.73571          2203.22903           866.04103           972.02996          1287.18551          1697.73662          1669.30275           892.11645          1783.18226           955.82201           276.70450          1898.54650          3772.95337          1170.28547           433.16726          1564.88028           786.06876          1128.80865          1892.77038           482.00144           563.61215          2152.48029          2589.30300          1352.31194           387.54897           731.73618           841.26338          1284.74254          1250.77536          1079.30813          1488.68391           809.26512          1440.31709           781.75204          1136.95313          2494.76867          1764.67320           722.73777           347.89137           605.99115          1332.12674           804.98022          1285.22961          3571.37278          1282.24114           356.21065           455.34520          1362.16817          1257.43984           966.68871           396.06274          3086.91589          1378.83716           364.14565          3241.32428          2240.66146           491.67048          1424.47845          1260.22678          1116.71126          1293.79595          1133.45254           524.07232          1644.00232          1412.84664          1431.62144          1375.22340           694.95398          1769.80969           520.22200          1306.93701           556.15737           500.23378           729.03635          1715.42105          1171.62034           941.86588           516.50890           386.98998          1689.43252          1204.18386          3831.16245          5048.69275          3045.67242          1937.58634          1849.07163          2451.93085          3405.20227          5089.40085           638.08234          4270.68190           376.43352          1038.59623          1378.50970           605.18645          3977.92101          5425.20126          1232.73605           397.64125          1819.83384          2506.10880           723.85988           730.16851          1305.49976          4111.30531          1232.46857          2380.20413          1183.28856           565.36933          1474.38106          1441.46169           444.61545          3079.51848           477.13292          1338.95779          5294.41981          3619.12117          1634.87793          5859.55873           284.93641           793.55819           466.34815          1853.83708          2571.61492          1621.58313          2794.48524          1626.66201          2453.26355           734.58415          1443.29936          1310.43939          1810.49516          7247.33231          3286.67029           872.23196          4562.89051          3741.22611           781.71913           600.47427          5445.20396          2589.66080          4075.40943          5176.96332          1353.92560           788.07419           704.72178           467.15654           736.65198          4299.78405          1530.15125           956.32686          1529.33042           323.50377          1012.81844          1500.22524          3776.66331           960.66738           924.51172           703.97018           680.60408          1562.88432          1364.45073           803.68688          2764.97455          3039.44736          3041.64061          2968.83836          5552.65651          4825.68735          2522.68726           509.46558          4374.33392          1256.49986          1488.67971           638.88338          1283.18417           821.14692           353.12181          6531.69697          4744.73568          1375.74401          1447.53588          2589.16817          2038.18925          2979.63264          2738.94982           843.51565          1044.89355           497.65302           932.01738           401.63490           460.31473           836.77422           597.46088          1803.20269          5170.03051          3142.44447          1411.28563          2560.36834          1201.66644          1575.40258          7743.60129          4957.63270          1781.30850           422.17173           598.39451          5613.49883           582.32436          3824.24783          4306.31379           988.57039          2415.74679           633.48854          1042.13421          1004.56651          2258.72419          2369.74912          2669.06820           586.11608           455.01619          1110.45942           331.82406           553.18707           385.65422          3034.42173          5245.46360           469.81452          2776.12060           716.58057          2447.94878          1200.06105           778.49043           606.21824           610.44986           563.34626          1773.20063           693.33532          1276.78491           625.66316          2371.62092          1692.86943          3908.54160          2610.76730           550.75844           486.36688           315.04829          2836.21711           690.21970           684.39121          1150.37328          2665.50637           868.84782           787.61257           465.21123          1144.35069          1087.41425          1535.76954          1332.47314           539.80001           714.10724           646.01579          2504.77344          2477.91366          1104.94090          7525.19919           994.74639           765.41149           840.10916          1351.39205          2271.94067          1479.17648          1445.77918          1324.41066          2551.87401           928.72837          6685.91816          1428.77141          2551.22415           705.71857          1115.38215          3657.44702          3115.39108           811.12963          1015.89872          2857.85764           511.91748           541.11497          1175.40086          2609.05695          5719.32762          1459.98071          6834.47582          1218.91434          1577.45613          1410.59031          1165.59583           443.65331           735.07329          2534.06046           715.81595          4261.11801           591.06843          3051.70503           840.88088           607.89848          1333.82795          1994.85049          2623.52646          4924.29346          2545.69502          1461.00207          1605.86564          1295.69469          6858.33191          7149.04924          1814.56099          1057.03687          2787.59828           541.69268          1084.55625           822.44483          2589.51634          1106.54727           907.96733           540.60877           546.83216          3452.23315           931.05274           747.40255          6080.30924          3858.27597          2176.52024          1294.73498          8796.08416           729.00144          2351.85321          2900.05919          2051.76376          1029.47347          2821.19337          5856.39413          1500.18582           369.65275           643.00625           809.62885          1576.65671          1593.29330           589.15747           624.53382          6570.26105           699.52382          1143.94952          1782.77012          3558.39836          5421.84207           415.71258          1148.29286           774.78588           947.98690          1667.18442           664.15554           786.81876          1545.48619           818.71413           577.88102           389.97653           739.57615          2714.53204           498.81332          2734.85319          1433.20878          2367.85247          1229.53537          1669.42534          1463.09958           397.87423          3209.93860          1393.60062          1748.29543          1767.98690          2226.93336          5595.37620           998.56726          5132.70521           582.33808           739.84062          1490.00391          1127.15462          7261.40644          2517.51776           789.64535          1597.15396          3976.45520          3095.77159           518.16630          5599.47966          1297.41296          2628.64255          1045.59393          3675.77766          3719.52942           439.18075          3833.96931          4053.86151          2192.30127          5182.15166           834.21026           721.11322          1118.55446          2432.34811           475.06995          7362.66235          4146.35390           538.00487          1554.88158          1468.73994          1853.58934           816.88240          1092.89281         12228.58372           621.78476          2194.13904          1236.50793           505.66147           856.77923          2262.32949          4623.90247          6133.38587          1552.67902          2832.22339          2571.82104          4443.89265           668.00721          1348.53387          2107.75455          1767.92481          5259.11810           517.28592          1112.76686          2782.44614           746.26523          3778.43998          2177.16608          6547.42538          2082.21280          1242.25402          1040.67611           553.24262          4890.90799          7012.16768          2357.56346           362.06997           411.45003           765.15997           675.08949          6152.55275          1351.22623          1843.55902          2745.09434          2837.29795          5682.10879          5533.88942           356.35700           615.18096           697.72381          1234.23153           622.87601          5116.29461          3683.25831          1197.26149           823.67828           964.55521          2312.85799          3378.99427          2204.36394          1891.48157           790.45322          4763.77014          6986.05578           506.96520           629.99397          1599.63900          7415.07530          1775.16965          2730.61922          5778.36075           844.45028          1735.24718          4413.46523           567.60246          1412.79770          1010.44265          4761.42586           846.14072          1643.99667          3013.47179          5614.98459          4180.45996          5800.86997          4481.92396          4202.48713          1639.43736           747.92729          3950.42849          8567.00656           598.51792          2312.08863          2602.75785           269.09539          2289.96341          3309.92154          2547.63361           436.91041          4403.11479           778.21756          2973.37164          3812.80878          1714.82022           710.87158          2902.25109          3439.75608          5427.73045          6020.06016          5208.38526           562.54019           596.15708          1134.99666          4773.95529          1001.69786          2473.75265           746.04890           695.251