# vtk DataFile Version 3.0
Output from R2
ASCII
DATASET UNSTRUCTURED_GRID
POINTS       1414 double
     0.00000  2968.10000   0.
     1.54000  2966.60000   0.
     3.08000  2964.90000   0.
     4.61000  2964.10000   0.
     6.15000  2963.30000   0.
     7.69000  2962.60000   0.
     9.23000  2961.50000   0.
    10.76000  2960.70000   0.
    12.30000  2960.00000   0.
    13.84000  2959.30000   0.
    15.38000  2958.70000   0.
    16.91000  2958.10000   0.
    18.45000  2957.30000   0.
    19.99000  2956.60000   0.
    21.52000  2955.80000   0.
    23.06000  2955.00000   0.
    24.60000  2954.30000   0.
    26.14000  2953.50000   0.
    27.68000  2952.80000   0.
    29.21000  2951.90000   0.
    30.75000  2951.10000   0.
    32.29000  2950.20000   0.
    33.83000  2949.50000   0.
    35.36000  2948.70000   0.
    36.90000  2948.10000   0.
    38.44000  2947.30000   0.
    39.98000  2946.70000   0.
    41.51000  2946.10000   0.
    43.05000  2945.50000   0.
    44.59000  2945.10000   0.
    46.13000  2944.50000   0.
    47.66000  2944.10000   0.
    49.20000  2943.60000   0.
    50.74000  2943.40000   0.
    52.28000  2943.00000   0.
    53.81000  2942.50000   0.
    55.35000  2942.10000   0.
    56.89000  2941.60000   0.
    58.43000  2941.00000   0.
    59.96000  2940.60000   0.
    61.50000  2940.10000   0.
    63.04000  2939.50000   0.
    64.58000  2939.10000   0.
    66.11000  2939.20000   0.
    67.65000  2939.20000   0.
    69.19000  2939.10000   0.
    70.73000  2938.90000   0.
    72.26000  2938.60000   0.
    73.80000  2938.30000   0.
    75.34000  2938.50000   0.
    76.88000  2938.70000   0.
    78.41000  2938.60000   0.
    79.95000  2938.80000   0.
    81.49000  2938.90000   0.
    83.03000  2939.10000   0.
    84.56000  2939.10000   0.
     3.42000  2957.55000   0.
     8.97000  2954.51000   0.
    14.52000  2951.86000   0.
    20.07000  2949.38000   0.
    25.63000  2946.59000   0.
    31.18000  2943.67000   0.
    36.73000  2940.99000   0.
    42.28000  2938.62000   0.
    47.83000  2936.87000   0.
    53.39000  2935.46000   0.
    58.94000  2933.69000   0.
    64.49000  2931.95000   0.
    70.04000  2931.81000   0.
    75.60000  2931.36000   0.
    81.15000  2931.70000   0.
     0.51333  2967.60000   0.
     1.02667  2967.10000   0.
     2.05333  2966.03333   0.
     2.56667  2965.46667   0.
     3.59000  2964.63333   0.
     4.10000  2964.36667   0.
     5.12333  2963.83333   0.
     5.63667  2963.56667   0.
     6.66333  2963.06667   0.
     7.17667  2962.83333   0.
     8.20333  2962.23333   0.
     8.71667  2961.86667   0.
     9.74000  2961.23333   0.
    10.25000  2960.96667   0.
    11.27333  2960.46667   0.
    11.78667  2960.23333   0.
    12.81333  2959.76667   0.
    13.32667  2959.53333   0.
    14.35333  2959.10000   0.
    14.86667  2958.90000   0.
    15.89000  2958.50000   0.
    16.40000  2958.30000   0.
    17.42333  2957.83333   0.
    17.93667  2957.56667   0.
    18.96333  2957.06667   0.
    19.47667  2956.83333   0.
    20.50000  2956.33333   0.
    21.01000  2956.06667   0.
    22.03333  2955.53333   0.
    22.54667  2955.26667   0.
    23.57333  2954.76667   0.
    24.08667  2954.53333   0.
    25.11333  2954.03333   0.
    25.62667  2953.76667   0.
    26.65333  2953.26667   0.
    27.16667  2953.03333   0.
    28.19000  2952.50000   0.
    28.70000  2952.20000   0.
    29.72333  2951.63333   0.
    30.23667  2951.36667   0.
    31.26333  2950.80000   0.
    31.77667  2950.50000   0.
    32.80333  2949.96667   0.
    33.31667  2949.73333   0.
    34.34000  2949.23333   0.
    34.85000  2948.96667   0.
    35.87333  2948.50000   0.
    36.38667  2948.30000   0.
    37.41333  2947.83333   0.
    37.92667  2947.56667   0.
    38.95333  2947.10000   0.
    39.46667  2946.90000   0.
    40.49000  2946.50000   0.
    41.00000  2946.30000   0.
    42.02333  2945.90000   0.
    42.53667  2945.70000   0.
    43.56333  2945.36667   0.
    44.07667  2945.23333   0.
    45.10333  2944.90000   0.
    45.61667  2944.70000   0.
    46.64000  2944.36667   0.
    47.15000  2944.23333   0.
    48.17333  2943.93333   0.
    48.68667  2943.76667   0.
    49.71333  2943.53333   0.
    50.22667  2943.46667   0.
    51.25333  2943.26667   0.
    51.76667  2943.13333   0.
    52.79000  2942.83333   0.
    53.30000  2942.66667   0.
    54.32333  2942.36667   0.
    54.83667  2942.23333   0.
    55.86333  2941.93333   0.
    56.37667  2941.76667   0.
    57.40333  2941.40000   0.
    57.91667  2941.20000   0.
    58.94000  2940.86667   0.
    59.45000  2940.73333   0.
    60.47333  2940.43333   0.
    60.98667  2940.26667   0.
    62.01333  2939.90000   0.
    62.52667  2939.70000   0.
    63.55333  2939.36667   0.
    64.06667  2939.23333   0.
    65.34500  2939.15000   0.
    66.88000  2939.20000   0.
    68.42000  2939.15000   0.
    69.70333  2939.03333   0.
    70.21667  2938.96667   0.
    71.24000  2938.80000   0.
    71.75000  2938.70000   0.
    72.77333  2938.50000   0.
    73.28667  2938.40000   0.
    74.31333  2938.36667   0.
    74.82667  2938.43333   0.
    75.85333  2938.56667   0.
    76.36667  2938.63333   0.
    77.64500  2938.65000   0.
    78.92333  2938.66667   0.
    79.43667  2938.73333   0.
    80.72000  2938.85000   0.
    82.00333  2938.96667   0.
    82.51667  2939.03333   0.
    83.79500  2939.10000   0.
     0.08400  2959.57200   0.
     1.19600  2958.89800   0.
     2.30800  2958.22400   0.
     4.53000  2956.94200   0.
     5.64000  2956.33400   0.
     6.75000  2955.72600   0.
     7.86000  2955.11800   0.
    10.35750  2953.84750   0.
    11.74500  2953.18500   0.
    13.13250  2952.52250   0.
    15.90750  2951.24000   0.
    17.29500  2950.62000   0.
    18.68250  2950.00000   0.
    21.18200  2948.82200   0.
    22.29400  2948.26400   0.
    23.40600  2947.70600   0.
    24.51800  2947.14800   0.
    26.74000  2946.00600   0.
    27.85000  2945.42200   0.
    28.96000  2944.83800   0.
    30.07000  2944.25400   0.
    32.56750  2943.00000   0.
    33.95500  2942.33000   0.
    35.34250  2941.66000   0.
    38.11750  2940.39750   0.
    39.50500  2939.80500   0.
    40.89250  2939.21250   0.
    43.66750  2938.18250   0.
    45.05500  2937.74500   0.
    46.44250  2937.30750   0.
    49.22000  2936.51750   0.
    50.61000  2936.16500   0.
    52.00000  2935.81250   0.
    54.77750  2935.01750   0.
    56.16500  2934.57500   0.
    57.55250  2934.13250   0.
    60.32750  2933.25500   0.
    61.71500  2932.82000   0.
    63.10250  2932.38500   0.
    65.87750  2931.91500   0.
    67.26500  2931.88000   0.
    68.65250  2931.84500   0.
    71.43000  2931.69750   0.
    72.82000  2931.58500   0.
    74.21000  2931.47250   0.
    76.98750  2931.44500   0.
    78.37500  2931.53000   0.
    79.76250  2931.61500   0.
    82.53750  2931.75500   0.
    83.92500  2931.81000   0.
     6.60134  2937.05984   0.
    20.80435  2932.52560   0.
     3.78758  2946.36592   0.
    15.48523  2940.98228   0.
    29.30091  2934.50364   0.
    23.90594  2939.46561   0.
    40.87322  2931.62711   0.
     1.03219  2951.87344   0.
    10.83406  2946.32292   0.
    20.42668  2943.42459   0.
    48.80952  2930.83467   0.
    35.50309  2935.49258   0.
     7.54365  2949.73854   0.
    28.57967  2939.84283   0.
    15.90963  2945.83181   0.
    44.30452  2933.27820   0.
    -0.12722  2955.42655   0.
    24.47411  2943.04615   0.
     4.45051  2952.86019   0.
    40.01017  2935.22543   0.
    52.75593  2931.58993   0.
    13.75183  2934.27842   0.
    32.31862  2938.44653   0.
     0.40990  2931.04902   0.
    19.20708  2946.27332   0.
    57.19103  2930.55709   0.
    -0.97178  2947.27328   0.
    19.39705  2939.49643   0.
    11.08068  2950.12444   0.
    32.86215  2930.47012   0.
     7.41320  2941.82707   0.
    13.76382  2948.77946   0.
    27.17579  2942.79365   0.
     7.27112  2952.68663   0.
     2.71547  2954.94653   0.
    22.91159  2945.17994   0.
     2.00816  2941.86911   0.
    24.73355  2934.79062   0.
    47.86753  2934.00196   0.
    50.62083  2933.29089   0.
    60.15732  2930.28185   0.
    37.65425  2937.53830   0.
    44.64836  2929.77041   0.
    10.93416  2939.02064   0.
     4.26476  2949.76242   0.
    36.78915  2931.78219   0.
     7.36345  2946.13476   0.
    30.92470  2941.06806   0.
     6.19921  2931.10091   0.
    35.16618  2938.51604   0.
    16.36294  2929.87801   0.
    13.43632  2943.77014   0.
    42.64967  2935.50406   0.
    26.89596  2931.23775   0.
     1.59760  2936.73753   0.
    17.19200  2948.13905   0.
    -0.61497  2957.60981   0.
    26.49360  2937.36117   0.
     9.56799  2951.50953   0.
    17.55858  2943.77119   0.
    55.26825  2932.33039   0.
    22.03247  2936.46128   0.
    16.10828  2937.24515   0.
    22.48452  2941.40733   0.
    20.86327  2946.43955   0.
    29.71126  2937.35408   0.
    32.14062  2935.59882   0.
    45.26358  2935.44707   0.
    29.19256  2942.39482   0.
    25.22337  2944.48902   0.
    25.77440  2940.40763   0.
     5.12787  2951.33100   0.
     9.72036  2943.07255   0.
     0.63027  2944.64860   0.
     5.15669  2954.13690   0.
    33.80274  2940.56791   0.
     1.57076  2956.41210   0.
     9.31000  2947.97928   0.
     9.87726  2933.53233   0.
    53.60824  2932.85261   0.
    40.63972  2936.89193   0.
    13.47285  2946.23828   0.
    37.68088  2934.75035   0.
    46.32767  2931.88185   0.
    18.64740  2941.16071   0.
    13.09413  2950.32980   0.
    18.01744  2935.92389   0.
     0.55332  2948.73049   0.
     5.35766  2947.55011   0.
    42.44669  2933.52960   0.
    57.75733  2932.24094   0.
    23.68300  2931.83870   0.
    19.94397  2947.74183   0.
    61.81887  2931.15328   0.
[...]
POINT_DATA      1414
CELL_DATA      2568
SCALARS Resistivity(ohm.m) double 1
LOOKUP_TABLE default
          1189.75391          1682.67928          2440.64367          1150.41429           480.06056          2318.17051          1310.49474          1493.76681          1579.41526          2075.71218           889.23842          2036.58110           636.66140          2243.67365          2199.68637          1875.15448          1506.70876           479.82421           459.17124          2393.40254          1243.14642          1900.55265          1245.73908           582.88769          1784.83731           558.29039           241.18958          2251.49165          2129.92241          2394.41779           473.59374           567.21344          1598.18695           444.29982           377.92148          1611.87695           785.97910          1040.71627          1205.93941          1492.26071          1741.68887           778.56639           466.91112          2240.78291           336.70234           468.01623          2852.49375           945.02909           669.87196          1007.08980          2508.61708          1771.12201          1128.27195          1504.27712          2236.18314           994.80436           367.64452          2344.64718           453.75989          1187.49352           519.54030          2062.15777           470.00412          1841.52118           249.24028          1494.02276          2104.19610          2008.99151           286.66003           753.01040           544.87782           856.70620          1968.77451           408.90136           318.24790          2879.98611          1415.85857           480.08030           322.68324          2686.98294          2550.93737          1459.04860           440.37506           481.72700          1973.53987           829.42082           339.43865          2017.82400           946.54303          1864.61358          1129.33505           365.12216          2354.81026           365.02939          1702.44130          1918.45500           551.63799          1290.03685          2103.38593          1081.32804          1507.09619           534.75505           666.82988           815.18549           907.10183          1613.14162           466.06510          1059.16051          2092.76650          1354.27584           396.83980          1189.64532          2458.92233          1769.76737          1942.65463          1262.19354          1120.80782          1446.08243           453.20346           319.73612          2367.65346          1374.60283          2925.91578           809.38463           536.35241          2027.90311          2340.62701          3153.61989          1803.85697          1417.36591          2050.19558          1129.19094          1198.00557          2203.88811           934.70952          2784.86517           391.47941          1583.13994          1075.13383          1308.53426          1538.78265           490.84343           637.98616          1355.24403          1579.21378           574.63400           437.30418          1431.50379          1870.74961           575.57744          2361.08412          1826.10384          1038.24257           758.92545          2287.26470           282.95642          1607.26819           445.63333          2137.71659          1237.44652          1256.47411           490.07746          2251.18585           417.21110          2273.11851           540.72821          1415.75820          1770.57825          1834.81072          1644.73840           802.65130           865.66416           743.35240           267.17993           420.97609          1033.99692           856.38984          3488.94073          2597.90451          1206.37778          2284.41756          1449.46590          1957.21894           800.76517           541.05215          1032.09202           919.56479           676.55166           972.71960          2403.27912          1187.78758          2343.35939           605.19882          2561.90334           259.62379           509.27819          2501.43311          2073.03862          1248.42330           423.38027           277.90742           908.19689          1766.33209          1379.76582          1770.83769          1099.96594          3795.78074          2299.80277           398.88530          2292.96800          1275.29863           623.90351           426.41858           342.93177           598.32846          1208.93109          2263.01310           540.28964          1268.81600           509.35787           961.25730          1361.79889          1179.66612           353.01198           688.01536           661.77348           378.01562           552.86163          1246.32814           313.41499          1142.77464          1994.31397          1377.66648          2907.60144          2348.50467          1651.05775          2371.60591          1464.53704          1417.14787          1333.89091          2511.27930           715.37690          1016.91026           415.99133          2389.12773           260.89127          1815.06811           434.27166           463.86555          2162.33894           246.43255          2002.05461          1703.55770           707.99880          1955.42415          1069.77666           679.36587           754.07968           766.00845          2846.45839           593.02935          2249.52667           503.81131           441.58253           441.16135          1627.06116           367.07929          2388.66559           955.00427          2356.32685          1096.45745          2104.03542          2348.57273          2234.20509           507.34545          1564.21450          2244.11542           494.84015           751.61554           708.36230           497.43268          1325.72612           275.34853          1028.85930          1024.64751          2441.81042           471.31254          2384.72953           671.54543           468.68299          1027.27431           309.84800          2255.87350           673.21638          1884.39790          2331.85315          1434.86491           520.51305           451.19607           662.70709          1079.53701           435.66217          2433.42218          2461.81943           442.72202          1731.56618          1266.73005          1464.12247          1854.48407           386.68175           710.36758           613.99873           287.31259          2375.17649           875.71229           342.55011           434.22798          1229.86157          2715.22414           520.58303          3227.39017           398.52753           823.17499           442.11020           535.56978          1190.31412           429.22560          1332.10063          1089.27864          2784.07558          1714.69457          2195.84637           515.78951          1571.16206           343.25050           405.44558           597.98932           628.12558          3107.82688           589.30640          2102.47896           428.46390          2118.28940           493.25110           576.67880          1712.69377          1260.74244           987.86154           437.77671          2168.44868           469.31362          2371.60985           821.95384           386.04890           459.79983          2025.61537           460.74771          1566.47857           315.16396           391.32789           920.73502          1441.42978          1010.50031           529.50053          1297.54209           501.41150           371.02022          2393.74173          1741.46973          2588.71711           483.84670          1253.38341          1356.21863          1095.89272           278.79686          2576.27848           414.66236           524.90086           463.91017          1954.68800          1318.76818           449.64270          1692.43556          2337.87662           252.74065          1289.39811           585.84051          1402.30968           437.85863          1516.96328           721.22131           334.50877          1362.03917          1355.10354           435.07616           911.83080           577.23175          1380.82902          1642.31057          1125.84615           573.81948           635.70399          1330.77112          1382.83047          1311.71350           935.60104           566.48013          1004.80992          2341.21941          1613.36980          1494.20939          2118.72298          1118.17919           570.04639          1180.65574          2425.37610           730.48466           746.89605           776.18088          1714.63229          1089.92847           385.21906          2166.88746          1445.34936          1307.47149           270.54999          1603.30041           589.74874          1341.63454           515.85069          1338.72660           501.81601           439.79436          1860.63613          1133.72968          1414.75082          1480.88258           701.30515          1801.14627          1333.08943          3477.87332           599.13999          1189.61811          2001.90340          1156.21160          1180.23857          1241.02444          1208.24812          4131.09554           909.07583          3240.18473          1532.90084          1508.30787          1265.72373          1661.68082           913.29591          2065.19964           976.51306          1403.34067           470.82351          1829.10035          1308.39890           936.38018          1377.78993          2209.91801           899.06697           970.50604          1266.90356          1664.86344          1631.06662           889.19954          1742.53315           977.67398           264.23611          1866.67171          3834.88055          1160.23655           446.42768          1527.69060           804.13929          1127.54968          1880.08409           504.04748           561.54374          2151.24818          2645.27131          1327.22276           367.41954           725.99828           865.35206          1265.45039          1234.77316          1102.02253          1440.72876           850.09303          1395.34500           819.16348          1148.29369          2472.34987          1720.45709           729.00188           330.53582           623.40079          1316.41445           839.15867          1275.38920          3611.50200          1268.01541           361.81827           473.11030          1338.17529          1251.61242           982.88887           407.24718          3123.96321          1338.80403           370.95790          3269.04486          2236.07009           462.96622          1397.28531          1246.32051          1134.45450          1276.38410          1147.93887           552.38194          1604.28701          1370.34515          1388.32196          1346.70922           732.19427          1731.37105           482.34571          1283.77137           587.00856           469.56817           764.98917          1677.67299          1179.64128           984.59076           480.69402           395.55934          1650.51034          1206.50425          3695.35167          4763.90627          2906.42053          1919.72282          1845.11762          2442.40006          3503.37998          5140.27175           648.84386          4267.11163           393.04450          1027.64302          1301.81318           663.96229          3992.03381          5314.77694          1235.10206           395.81515          1875.78168          2510.81659           723.84065           738.41485          1291.30582          4221.87764          1324.57232          2299.84810          1199.71288           622.21017          1386.95088          1472.23279           470.05487          3187.05218           461.29106          1393.85996          5294.66488          3666.56863          1634.73762          5511.74463           272.97811           773.17633           463.19253          1939.41700          2603.74604          1634.38235          2926.98308          1697.29673          2400.66452           735.29060          1418.03288          1302.80554          1931.28171          7267.71991          3231.59260           843.80121          4684.30190          4064.46657           787.85514           570.94314          5367.30976          2464.75399          4150.94949          4949.64847          1396.08687           774.62325           700.04125           477.77506           704.85443          4416.31647          1558.53070           941.75271          1510.14901           312.60550           994.73256          1471.37903          3605.98985          1038.34194           918.26984           693.31300           676.75758          1592.81687          1422.05940           863.45815          2667.40992          2934.80899          3156.59447          2960.12769          5646.04149          5063.30233          2433.80508           496.92081          4191.58938          1263.86699          1484.56943           648.18011          1284.64741           847.71113           363.50252          6476.12024          4731.81849          1356.70854          1511.65638          2622.42466          2092.30869          2924.30031          2667.55321           827.58936          1051.64246           481.52260           969.39841           398.38864           437.90455           858.76708           630.92184          1884.23983          5502.59579          3158.19432          1403.49730          2645.88158          1166.97107          1643.56114          7757.12618          5027.80713          1755.41440           419.50028           612.62501          5498.43006           577.30220          3750.28634          4221.59746           966.37728          2482.82740           655.86429          1063.93653           979.87595          2309.54481          2411.97354          2672.29812           606.85287           445.86251          1098.52129           322.01286           533.73332           385.32027          3002.79719          5248.28632           499.35152          2644.97966           718.24826          2356.32088          1151.99166           811.40965           615.67865           588.57728           545.07316          1856.63558           710.63024          1315.91846           632.39446          2434.93336          1709.08433          4276.49264          2430.88935           557.36848           467.64418           305.14477          2828.03183           694.17863           719.61839          1116.05938          2599.05682           923.42076           782.68224           443.58594          1122.37992          1094.06386          1652.70012          1333.72316           526.94391           709.05006           636.41853          2480.79725          2565.72340          1142.52826          7471.40839           969.63762           791.31465           817.18449          1424.57537          2356.21065          1453.01796          1436.71487          1329.99522          2471.98999           911.91800          6452.44332          1434.80039          2566.04600           722.95343          1109.99370          3819.49397          3072.21606           829.55393          1008.88798          2771.00611           537.86104           538.48484          1176.89106          2482.47920          5865.91355          1481.03654          6885.72682          1305.30067          1540.54607          1390.26787          1122.03659           439.52402           711.76647          2543.63769           705.80849          4207.08441           625.57302          3162.11934           854.80121           646.53127          1380.22902          2039.06032          2651.20012          4955.61813          2429.79948          1413.49900          1645.93253          1221.13913          6681.44850          7180.70091          1857.42287          1084.02713          2698.59432           526.25069          1065.62653           815.89096          2549.66890          1082.61751           923.59153           522.71093           534.97521          3385.86127           971.68142           733.85864          6107.86188          3971.44771          2083.50729          1344.74833          9301.02097           704.82610          2420.51185          3086.17986          2047.36726          1090.55228          2789.17324          5959.59969          1446.92622           363.39874           633.19984           782.97749          1670.48603          1639.27431           573.57532           608.73859          6874.81639           684.90353          1159.87887          1681.75514          3541.43806          5505.82288           422.38897          1104.34637           743.92457           909.35997          1736.22227           632.94317           778.08929          1701.66524           852.11506           625.96455           390.76533           766.50759          2784.87750           502.56540          2816.80710          1381.84395          2326.29344          1235.71270          1722.91584          1448.02778           393.53826          3375.68966          1449.64939          1806.92056          1767.07569          2245.75365          5797.69155           971.30053          5247.38302           569.55533           723.53176          1412.81185          1093.59551          7293.97782          2532.81479           805.58150          1578.65194          4076.96074          2946.65713           479.36994          5817.52391          1317.71775          2534.35573          1039.16826          3775.86599          3828.23310           422.22519          3763.89792          4036.19792          2158.14412          5373.45326           822.82993           728.86527          1085.68636          2489.39935           500.68050          7531.92411          4184.05763           508.42819          1608.33651          1444.68275          1896.49877           800.18630          1078.44409         12417.94001           617.60145          2266.52421          1270.37691           522.27005           882.70599          2208.15209          4595.36547          6183.95254          1580.12423          2562.31175          2486.18784          4522.79631           643.76417          1376.03990          2221.57868          1913.67640          5404.87085           503.47833          1084.63289          2841.45576           716.32907          3713.08835          2227.43580          6620.07635          2328.52696          1252.86203          1058.28109           535.76448          5009.36223          7064.04425          2503.44641           359.66350           405.41920           789.09654           671.11157          6213.39725          1308.99264          1732.73380          2702.99688          2805.66712          5575.14768          5737.72341           347.05916           589.07380           665.15679          1230.45719           598.51140          5075.28160          3654.00010          1257.82292           881.04513           949.45116          2331.33089          3404.07983          2265.76849          1873.82466           808.40937          4603.74358          6937.11721           527.30745           640.37774          1636.56197          7375.59004          1899.21251          2675.68341          5689.17337           876.12759          1826.69385          4420.43122           573.31401          1389.88094          1049.77984          4932.83280           843.98031          1635.30369          3090.67477          5636.56069          4499.96570          5892.60876          4432.54846          4294.58301          1549.42020           754.77370          3813.25155          8738.77040           652.49398          2268.09360          2622.64301           255.26842          2267.71994          3334.21229          2566.44775           408.16139          4557.93860           803.39544          2867.38779          3798.32774          1669.84849           712.60924          2862.80929          3572.73451          5439.16310          6070.09440          5321.57520           525.39003           612.44254          1149.97356          4954.38160          1040.37096          2426.64992           796.76175           700.946