# vtk DataFile Version 3.0
Output from R2
ASCII
DATASET UNSTRUCTURED_GRID
POINTS       1414 double
     0.00000  2968.10000   0.
     1.54000  2966.60000   0.
     3.08000  2964.90000   0.
     4.61000  2964.10000   0.
     6.15000  2963.30000   0.
     7.69000  2962.60000   0.
     9.23000  2961.50000   0.
    10.76000  2960.70000   0.
    12.30000  2960.00000   0.
    13.84000  2959.30000   0.
    15.38000  2958.70000   0.
    16.91000  2958.10000   0.
    18.45000  2957.30000   0.
    19.99000  2956.60000   0.
    21.52000  2955.80000   0.
    23.06000  2955.00000   0.
    24.60000  2954.30000   0.
    26.14000  2953.50000   0.
    27.68000  2952.80000   0.
    29.21000  2951.90000   0.
    30.75000  2951.10000   0.
    32.29000  2950.20000   0.
    33.83000  2949.50000   0.
    35.36000  2948.70000   0.
    36.90000  2948.10000   0.
    38.44000  2947.30000   0.
    39.98000  2946.70000   0.
    41.51000  2946.10000   0.
    43.05000  2945.50000   0.
    44.59000  2945.10000   0.
    46.13000  2944.50000   0.
    47.66000  2944.10000   0.
    49.20000  2943.60000   0.
    50.74000  2943.40000   0.
    52.28000  2943.00000   0.
    53.81000  2942.50000   0.
    55.35000  2942.10000   0.
    56.89000  2941.60000   0.
    58.43000  2941.00000   0.
    59.96000  2940.60000   0.
    61.50000  2940.10000   0.
    63.04000  2939.50000   0.
    64.58000  2939.10000   0.
    66.11000  2939.20000   0.
    67.65000  2939.20000   0.
    69.19000  2939.10000   0.
    70.73000  2938.90000   0.
    72.26000  2938.60000   0.
    73.80000  2938.30000   0.
    75.34000  2938.50000   0.
    76.88000  2938.70000   0.
    78.41000  2938.60000   0.
    79.95000  2938.80000   0.
    81.49000  2938.90000   0.
    83.03000  2939.10000   0.
    84.56000  2939.10000   0.
     3.42000  2957.55000   0.
     8.97000  2954.51000   0.
    14.52000  2951.86000   0.
    20.07000  2949.38000   0.
    25.63000  2946.59000   0.
    31.18000  2943.67000   0.
    36.73000  2940.99000   0.
    42.28000  2938.62000   0.
    47.83000  2936.87000   0.
    53.39000  2935.46000   0.
    58.94000  2933.69000   0.
    64.49000  2931.95000   0.
    70.04000  2931.81000   0.
    75.60000  2931.36000   0.
    81.15000  2931.70000   0.
     0.51333  2967.60000   0.
     1.02667  2967.10000   0.
     2.05333  2966.03333   0.
     2.56667  2965.46667   0.
     3.59000  2964.63333   0.
     4.10000  2964.36667   0.
     5.12333  2963.83333   0.
     5.63667  2963.56667   0.
     6.66333  2963.06667   0.
     7.17667  2962.83333   0.
     8.20333  2962.23333   0.
     8.71667  2961.86667   0.
     9.74000  2961.23333   0.
    10.25000  2960.96667   0.
    11.27333  2960.46667   0.
    11.78667  2960.23333   0.
    12.81333  2959.76667   0.
    13.32667  2959.53333   0.
    14.35333  2959.10000   0.
    14.86667  2958.90000   0.
    15.89000  2958.50000   0.
    16.40000  2958.30000   0.
    17.42333  2957.83333   0.
    17.93667  2957.56667   0.
    18.96333  2957.06667   0.
    19.47667  2956.83333   0.
    20.50000  2956.33333   0.
    21.01000  2956.06667   0.
    22.03333  2955.53333   0.
    22.54667  2955.26667   0.
    23.57333  2954.76667   0.
    24.08667  2954.53333   0.
    25.11333  2954.03333   0.
    25.62667  2953.76667   0.
    26.65333  2953.26667   0.
    27.16667  2953.03333   0.
    28.19000  2952.50000   0.
    28.70000  2952.20000   0.
    29.72333  2951.63333   0.
    30.23667  2951.36667   0.
    31.26333  2950.80000   0.
    31.77667  2950.50000   0.
    32.80333  2949.96667   0.
    33.31667  2949.73333   0.
    34.34000  2949.23333   0.
    34.85000  2948.96667   0.
    35.87333  2948.50000   0.
    36.38667  2948.30000   0.
    37.41333  2947.83333   0.
    37.92667  2947.56667   0.
    38.95333  2947.10000   0.
    39.46667  2946.90000   0.
    40.49000  2946.50000   0.
    41.00000  2946.30000   0.
    42.02333  2945.90000   0.
    42.53667  2945.70000   0.
    43.56333  2945.36667   0.
    44.07667  2945.23333   0.
    45.10333  2944.90000   0.
    45.61667  2944.70000   0.
    46.64000  2944.36667   0.
    47.15000  2944.23333   0.
    48.17333  2943.93333   0.
    48.68667  2943.76667   0.
    49.71333  2943.53333   0.
    50.22667  2943.46667   0.
    51.25333  2943.26667   0.
    51.76667  2943.13333   0.
    52.79000  2942.83333   0.
    53.30000  2942.66667   0.
    54.32333  2942.36667   0.
    54.83667  2942.23333   0.
    55.86333  2941.93333   0.
    56.37667  2941.76667   0.
    57.40333  2941.40000   0.
    57.91667  2941.20000   0.
    58.94000  2940.86667   0.
    59.45000  2940.73333   0.
    60.47333  2940.43333   0.
    60.98667  2940.26667   0.
    62.01333  2939.90000   0.
    62.52667  2939.70000   0.
    63.55333  2939.36667   0.
    64.06667  2939.23333   0.
    65.34500  2939.15000   0.
    66.88000  2939.20000   0.
    68.42000  2939.15000   0.
    69.70333  2939.03333   0.
    70.21667  2938.96667   0.
    71.24000  2938.80000   0.
    71.75000  2938.70000   0.
    72.77333  2938.50000   0.
    73.28667  2938.40000   0.
    74.31333  2938.36667   0.
    74.82667  2938.43333   0.
    75.85333  2938.56667   0.
    76.36667  2938.63333   0.
    77.64500  2938.65000   0.
    78.92333  2938.66667   0.
    79.43667  2938.73333   0.
    80.72000  2938.85000   0.
    82.00333  2938.96667   0.
    82.51667  2939.03333   0.
    83.79500  2939.10000   0.
     0.08400  2959.57200   0.
     1.19600  2958.89800   0.
     2.30800  2958.22400   0.
     4.53000  2956.94200   0.
     5.64000  2956.33400   0.
     6.75000  2955.72600   0.
     7.86000  2955.11800   0.
    10.35750  2953.84750   0.
    11.74500  2953.18500   0.
    13.13250  2952.52250   0.
    15.90750  2951.24000   0.
    17.29500  2950.62000   0.
    18.68250  2950.00000   0.
    21.18200  2948.82200   0.
    22.29400  2948.26400   0.
    23.40600  2947.70600   0.
    24.51800  2947.14800   0.
    26.74000  2946.00600   0.
    27.85000  2945.42200   0.
    28.96000  2944.83800   0.
    30.07000  2944.25400   0.
    32.56750  2943.00000   0.
    33.95500  2942.33000   0.
    35.34250  2941.66000   0.
    38.11750  2940.39750   0.
    39.50500  2939.80500   0.
    40.89250  2939.21250   0.
    43.66750  2938.18250   0.
    45.05500  2937.74500   0.
    46.44250  2937.30750   0.
    49.22000  2936.51750   0.
    50.61000  2936.16500   0.
    52.00000  2935.81250   0.
    54.77750  2935.01750   0.
    56.16500  2934.57500   0.
    57.55250  2934.13250   0.
    60.32750  2933.25500   0.
    61.71500  2932.82000   0.
    63.10250  2932.38500   0.
    65.87750  2931.91500   0.
    67.26500  2931.88000   0.
    68.65250  2931.84500   0.
    71.43000  2931.69750   0.
    72.82000  2931.58500   0.
    74.21000  2931.47250   0.
    76.98750  2931.44500   0.
    78.37500  2931.53000   0.
    79.76250  2931.61500   0.
    82.53750  2931.75500   0.
    83.92500  2931.81000   0.
     6.60134  2937.05984   0.
    20.80435  2932.52560   0.
     3.78758  2946.36592   0.
    15.48523  2940.98228   0.
    29.30091  2934.50364   0.
    23.90594  2939.46561   0.
    40.87322  2931.62711   0.
     1.03219  2951.87344   0.
    10.83406  2946.32292   0.
    20.42668  2943.42459   0.
    48.80952  2930.83467   0.
    35.50309  2935.49258   0.
     7.54365  2949.73854   0.
    28.57967  2939.84283   0.
    15.90963  2945.83181   0.
    44.30452  2933.27820   0.
    -0.12722  2955.42655   0.
    24.47411  2943.04615   0.
     4.45051  2952.86019   0.
    40.01017  2935.22543   0.
    52.75593  2931.58993   0.
    13.75183  2934.27842   0.
    32.31862  2938.44653   0.
     0.40990  2931.04902   0.
    19.20708  2946.27332   0.
    57.19103  2930.55709   0.
    -0.97178  2947.27328   0.
    19.39705  2939.49643   0.
    11.08068  2950.12444   0.
    32.86215  2930.47012   0.
     7.41320  2941.82707   0.
    13.76382  2948.77946   0.
    27.17579  2942.79365   0.
     7.27112  2952.68663   0.
     2.71547  2954.94653   0.
    22.91159  2945.17994   0.
     2.00816  2941.86911   0.
    24.73355  2934.79062   0.
    47.86753  2934.00196   0.
    50.62083  2933.29089   0.
    60.15732  2930.28185   0.
    37.65425  2937.53830   0.
    44.64836  2929.77041   0.
    10.93416  2939.02064   0.
     4.26476  2949.76242   0.
    36.78915  2931.78219   0.
     7.36345  2946.13476   0.
    30.92470  2941.06806   0.
     6.19921  2931.10091   0.
    35.16618  2938.51604   0.
    16.36294  2929.87801   0.
    13.43632  2943.77014   0.
    42.64967  2935.50406   0.
    26.89596  2931.23775   0.
     1.59760  2936.73753   0.
    17.19200  2948.13905   0.
    -0.61497  2957.60981   0.
    26.49360  2937.36117   0.
     9.56799  2951.50953   0.
    17.55858  2943.77119   0.
    55.26825  2932.33039   0.
    22.03247  2936.46128   0.
    16.10828  2937.24515   0.
    22.48452  2941.40733   0.
    20.86327  2946.43955   0.
    29.71126  2937.35408   0.
    32.14062  2935.59882   0.
    45.26358  2935.44707   0.
    29.19256  2942.39482   0.
    25.22337  2944.48902   0.
    25.77440  2940.40763   0.
     5.12787  2951.33100   0.
     9.72036  2943.07255   0.
     0.63027  2944.64860   0.
     5.15669  2954.13690   0.
    33.80274  2940.56791   0.
     1.57076  2956.41210   0.
     9.31000  2947.97928   0.
     9.87726  2933.53233   0.
    53.60824  2932.85261   0.
    40.63972  2936.89193   0.
    13.47285  2946.23828   0.
    37.68088  2934.75035   0.
    46.32767  2931.88185   0.
    18.64740  2941.16071   0.
    13.09413  2950.32980   0.
    18.01744  2935.92389   0.
     0.55332  2948.73049   0.
     5.35766  2947.55011   0.
    42.44669  2933.52960   0.
    57.75733  2932.24094   0.
    23.68300  2931.83870   0.
    19.94397  2947.74183   0.
    61.81887  2931.15328   0.
[...]
POINT_DATA      1414
CELL_DATA      2568
SCALARS Resistivity(ohm.m) double 1
LOOKUP_TABLE default
          1073.54813          1531.39344          2160.80851          1035.96981           569.58569          2113.34118          1354.65182          1511.59655          1501.06749          1873.05395           857.03584          1871.30110           637.84360          2389.41250          2313.09598          1804.19621          1381.68505           473.15729           476.80781          2432.18859          1283.96438          1761.29015          1115.83706           666.41624          1677.47225           547.32204           258.88282          2071.93288          2166.78782          2132.66282           504.77834           549.98512          1454.16255           405.32229           382.38318          1650.68529           781.00490           960.31746          1079.27888          1545.28746          1685.74946           756.42244           447.87658          2343.38093           331.11747           431.45683          3299.98780           904.85233           661.68091          1013.55769          2922.23300          1685.66644          1073.47264          1393.32957          2206.32418           917.39913           364.80267          2085.99176           427.50316          1119.77783           591.97910          2078.22691           470.80922          1739.79503           263.38216          1408.40743          1968.55374          1806.08312           292.27428           704.75697           513.22743           849.55493          1965.31230           401.17366           333.24209          3069.73285          1280.63811           464.64618           337.74175          3141.99356          2991.04247          1462.16901           406.72197           438.46617          1942.18799           768.21132           337.79252          2023.17079           944.44626          1678.29573          1033.59537           354.13373          2109.59095           379.31440          1743.74218          1886.11463           546.55211          1206.55761          2158.15263           989.41318          1358.02221           585.65267           669.10105           789.88885           961.17959          1529.47211           549.59300          1006.29570          2083.99942          1265.34858           410.15910          1205.46920          2606.36792          1600.02930          1930.65462          1157.85401          1127.97997          1315.21771           436.27453           322.43215          2294.24475          1237.83200          3272.36416           781.79218           522.93812          1906.84615          2449.67651          3437.04892          1659.60090          1452.97803          1861.41667          1012.89852          1078.05111          2301.05630           891.44036          2918.86662           404.29222          1482.90194           977.74089          1206.07376          1392.19765           553.27591           642.77108          1390.15429          1448.69546           606.17901           454.99012          1287.62188          1763.72500           603.82567          2154.16088          1766.72536           978.99002           743.16377          2325.73388           298.89158          1573.31173           412.17232          2196.05686          1116.38229          1188.83606           539.88741          2299.26813           479.78700          2029.25339           605.86059          1464.97756          1766.56183          1795.47818          1524.10526           781.14584           830.59929           725.41578           277.05057           393.24224          1014.89197           794.49875          3533.69459          2722.14594          1116.74184          2220.81508          1418.03801          1789.32057           772.07758           594.85630           939.58018           846.19884           663.58753           948.85288          2646.96429          1065.37682          2566.89221           584.49123          2945.85347           270.29123           499.09778          2874.39010          1864.00703          1125.83485           404.63134           294.20863           895.35992          1612.34955          1253.47270          1741.66199           994.17835          3745.57703          2189.32230           379.45934          2088.77255          1144.60180           641.98213           407.37646           346.05093           648.22552          1087.38521          2401.66059           506.21674          1150.90153           532.23823           952.36227          1260.25864          1084.53147           359.09147           690.87849           629.61517           391.39242           534.55272          1145.79812           311.32828          1129.53182          1963.44959          1238.00314          2994.77869          2487.49910          1582.69741          2595.50265          1409.52027          1311.31028          1197.01659          2812.98646           705.81112           923.13870           403.43567          2662.97121           276.20700          1641.10134           504.37571           467.27165          1940.35496           263.40779          1922.15819          1594.90258           677.14820          1811.67467           999.62820           667.47793           718.66956           750.02204          2909.87882           622.27572          2021.38088           494.15163           424.22661           437.79368          1528.12463           367.46147          2140.21236           871.95372          2220.39752          1074.59725          1964.99246          2424.79527          2117.88769           468.24529          1410.80363          2088.65085           469.03943           741.17678           693.24679           479.50928          1210.76036           288.37343           958.85576           987.02026          2160.03282           460.18322          2533.80898           674.82471           474.44570          1015.65980           322.28900          2372.68880           635.53392          1749.10133          2225.76517          1312.91789           553.22707           434.63530           644.22002          1090.61684           437.25621          2740.69109          2666.22672           406.35747          1659.22279          1141.02198          1324.00981          1817.93176           399.25627           672.96527           629.40901           290.50390          2179.62409           851.16895           352.23315           522.79877          1215.98218          2781.49097           477.29195          3315.15832           366.01747           890.38201           452.52051           539.46011          1064.61589           461.69256          1224.35435           980.13426          3055.03878          1550.91712          1995.53369           493.60662          1464.63982           328.62373           376.46281           586.32000           647.30538          3262.54273           629.61766          2075.06637           438.18743          1939.46729           458.93559           600.77167          1624.77987          1167.67865          1028.58103           452.31585          2071.75798           470.35298          2568.77566           772.17892           397.30825           454.40615          1949.88670           511.86757          1439.77894           310.81998           374.61556           900.09789          1335.08532           966.58988           505.88318          1172.67804           481.26450           380.36267          2248.58505          1608.10275          2676.04607           466.14348          1136.60111          1220.90273          1089.92709           285.61118          2840.29424           378.91402           495.89893           432.33899          1881.10803          1184.20668           457.16566          1621.25531          2547.23674           270.12957          1170.41015           621.92662          1340.98974           429.99107          1425.25451           675.56325           322.76965          1244.84830          1409.55313           444.36173           882.43773           548.85765          1387.84641          1538.83675          1081.85215           617.19562           601.14793          1196.73972          1290.05444          1182.35371           871.11115           577.03435           920.25837          2168.63496          1462.15695          1364.54067          2146.50836          1085.55952           667.88712          1206.24031          2683.82847           717.06481           824.98733           756.17965          1570.83008          1051.70117           363.52360          2137.54297          1351.89084          1189.77673           277.56495          1610.25532           622.06174          1212.64807           489.53435          1212.96992           484.71051           446.80020          1884.94964          1052.97242          1274.59192          1342.98461           689.28571          1744.54089          1352.00805          3572.84995           663.70096          1065.81622          2031.10925          1033.92203          1100.59606          1131.57544          1081.68590          4005.50931           845.48994          3421.70312          1385.47607          1489.35218          1277.46480          1644.08291           864.05404          2101.32642           894.42944          1322.27594           448.51006          1679.63236          1173.91671           863.00598          1356.13525          1983.00803           847.32923           940.01633          1239.10222          1681.33777          1489.17825           887.57929          1599.30638           920.03071           277.60516          1700.85697          3759.58651          1121.76772           402.30719          1451.90594           780.39146          1148.46182          1878.56589           503.00735           535.76001          1928.80545          3137.53880          1294.96429           380.47221           718.10923           827.94897          1133.85312          1195.48877           988.55077          1343.71143           798.85326          1296.77593           779.18003          1057.50808          2543.26087          1595.79282           712.22598           344.42542           640.71704          1207.85803           799.00305          1170.49655          3567.15479          1140.62648           345.85843           476.99367          1290.39160          1139.91181           929.40017           391.36655          3185.76275          1243.84463           356.27682          3280.24010          2277.40860           439.26835          1269.28047          1117.53754          1026.27157          1224.73468          1044.89865           529.16410          1523.46631          1264.75452          1278.39927          1341.94787           706.65199          1638.16328           476.10603          1282.41963           558.24525           450.01467           737.15871          1515.70121          1076.19198           897.97331           468.39939           382.45929          1489.61662          1095.23313          4155.06261          5080.29820          3211.22608          1917.01566          1892.68124          2345.89677          3908.68050          4694.85203           658.03333          4378.76930           374.14746           983.43519          1324.44859           664.83832          4324.09483          5768.31795          1148.78876           439.89071          2030.38676          2789.79756           667.44845           765.10491          1295.81203          4072.17166          1326.95882          2310.77116          1168.81619           629.92531          1325.20247          1461.13752           478.01790          3579.29707           503.78002          1307.91561          5124.53339          3637.94533          1787.77855          6059.73961           289.88390           813.93626           476.78072          1839.56422          3108.41687          1751.53125          3005.19954          1750.96342          2640.47214           682.43109          1467.28401          1365.71729          1635.46215          9539.00984          3170.67802           909.10175          4389.21684          4379.38664           845.78427           630.62279          5959.86370          2499.80284          3946.66612          5574.93077          1350.06521           790.73412           700.72035           476.27789           772.03048          4616.89246          1645.19811           919.83152          1565.39065           328.06097          1001.82386          1572.21105          3788.32026          1000.78198           938.78340           699.47249           655.20507          1483.30208          1369.00128           811.07611          2888.01855          2591.05052          3574.73039          3009.53787          5018.47432          5189.85250          2296.58813           482.32311          4546.87390          1139.74305          1580.08194           671.08336          1261.44088           861.90356           371.43599          7249.82298          4799.53811          1402.25078          1490.88410          3058.09763          1973.70739          2774.26010          2895.27010           832.58636          1116.59403           554.38358          1013.40791           359.93553           512.33637           843.42043           573.42964          2004.54338          5561.79294          3446.97592          1487.21188          2358.76408          1269.78814          1558.31713          7772.66982          4800.43919          1745.02479           374.51451           617.18775          5908.72243           599.03411          3676.12595          4320.76337           972.94340          2285.86493           676.67840          1073.35226           977.43428          2325.12954          2311.32081          2516.40233           662.08993           433.74928          1092.05201           345.74254           554.87305           430.35450          3142.91531          5132.49888           497.48838          2700.70287           748.07734          2480.32374          1123.61808           826.61125           619.85211           595.95599           624.06659          1934.12562           720.82412          1297.99672           649.94807          2623.87851          1761.50812          4217.80821          2667.35150           527.28174           533.80813           323.20591          2762.48972           710.53957           705.28565          1180.03137          2487.89175           950.02336           717.17873           485.84511          1129.93589          1066.80695          1470.27142          1403.50356           610.13170           753.48653           602.72156          2852.00395          2262.68185          1170.77842          7832.45010           961.77347           807.03255           854.10264          1374.55616          2423.32113          1512.91162          1450.45684          1402.75390          2341.11931           912.63309          7516.04838          1475.26216          3025.63754           750.41526          1103.74722          3899.43890          3225.99776           717.70864           990.53706          2951.77576           471.71952           486.05879          1105.15821          2732.60205          6474.71787          1328.23519          6643.40793          1184.76639          1574.14178          1447.48014          1100.32112           421.61106           708.52799          2726.12234           707.42975          4041.91614           667.43288          3006.47127           847.54376           671.26882          1320.65889          1803.29435          2876.67231          4488.71331          2541.43750          1331.46899          1610.45014          1182.16054          6812.44790          7214.92105          1920.63692           922.90520          2653.36889           608.45272          1060.49441           785.68462          2335.39532          1074.31443           993.56214           557.11640           621.57680          3424.66669           931.43645           686.27074          5965.11380          4228.59968          2272.21972          1263.94278          8433.66579           736.43601          2232.90212          2982.93840          1890.42128          1028.89471          2664.62623          5984.49901          1668.10191           388.96171           600.91613           829.18177          1664.41962          1645.29003           642.88872           601.40042          6978.10794           653.57920          1288.96477          1922.11196          3393.57852          6273.17468           415.42325          1233.48716           812.22272          1003.77135          1766.52813           709.10110           781.67403          1351.26022           833.51238           656.51259           362.83520           770.51484          3292.74253           482.88722          3360.48952          1575.10934          2153.13180          1230.28837          1634.55726          1494.79433           366.76081          3789.08271          1517.78502          1866.21089          1748.25742          2210.58679          6602.27958           955.36616          4781.33721           521.82420           718.26483          1491.09083          1081.13087          7222.89066          2981.65904           815.54755          1712.81610          4337.18948          3185.71916           602.08737          5213.08796          1349.20276          2598.51506          1079.22838          3797.97227          3296.23403           504.44755          3260.71441          4270.05450          2448.68314          5779.82549           766.35497           755.63706          1072.64097          2219.95403           475.27113          7971.29347          4306.52637           635.62757          1538.96053          1573.69142          1948.58251           797.18702          1073.74570         13313.95227           659.65734          2018.62561          1192.38798           451.44045           740.49084          2189.49410          4785.80985          6712.50585          1399.10618          2459.44145          2269.66631          4331.79168           688.88320          1294.53339          2066.42599          1626.99814          5429.75420           575.81416          1074.44980          2687.49965           769.74996          3374.53800          2036.02709          6127.50538          2383.66430          1310.63136          1097.98584           627.51267          5784.19658          6696.92545          2152.09364           335.02318           361.13548           776.22469           696.74803          5967.52933          1238.41842          2085.20457          2852.10048          2848.29753          5401.11257          5734.66407           347.69592           560.37696           743.40209          1276.63058           570.90405          4394.51462          3608.74585          1232.21118           875.24716           976.05790          2305.51614          3410.34016          2053.98959          1766.23617           808.42645          4552.43232          7226.59213           471.81754           674.73083          1663.45678          7155.77540          1921.12981          2785.99503          4919.38237           854.37079          1661.40845          4648.05827           564.51233          1457.94968          1067.60670          5100.13946           831.28324          1686.62920          3190.34708          5988.13526          4907.31033          5470.64405          4411.46401          3819.09053          1715.83762           754.28610          3818.89705          9273.83283           667.02647          2167.68079          2410.68384           277.59209          2365.69862          3110.23969          2331.30863           391.39368          4579.56474           827.35054          3001.47608          3951.62905          1878.53197           736.43127          2640.39361          3363.90754          6046.62186          5918.78870          4907.71613           610.74161           660.61665          1147.36431          5247.52996          1078.24854          2547.25602           831.85526           684.114