# vtk DataFile Version 3.0
Output from R2
ASCII
DATASET UNSTRUCTURED_GRID
POINTS       1414 double
     0.00000  2968.10000   0.
     1.54000  2966.60000   0.
     3.08000  2964.90000   0.
     4.61000  2964.10000   0.
     6.15000  2963.30000   0.
     7.69000  2962.60000   0.
     9.23000  2961.50000   0.
    10.76000  2960.70000   0.
    12.30000  2960.00000   0.
    13.84000  2959.30000   0.
    15.38000  2958.70000   0.
    16.91000  2958.10000   0.
    18.45000  2957.30000   0.
    19.99000  2956.60000   0.
    21.52000  2955.80000   0.
    23.06000  2955.00000   0.
    24.60000  2954.30000   0.
    26.14000  2953.50000   0.
    27.68000  2952.80000   0.
    29.21000  2951.90000   0.
    30.75000  2951.10000   0.
    32.29000  2950.20000   0.
    33.83000  2949.50000   0.
    35.36000  2948.70000   0.
    36.90000  2948.10000   0.
    38.44000  2947.30000   0.
    39.98000  2946.70000   0.
    41.51000  2946.10000   0.
    43.05000  2945.50000   0.
    44.59000  2945.10000   0.
    46.13000  2944.50000   0.
    47.66000  2944.10000   0.
    49.20000  2943.60000   0.
    50.74000  2943.40000   0.
    52.28000  2943.00000   0.
    53.81000  2942.50000   0.
    55.35000  2942.10000   0.
    56.89000  2941.60000   0.
    58.43000  2941.00000   0.
    59.96000  2940.60000   0.
    61.50000  2940.10000   0.
    63.04000  2939.50000   0.
    64.58000  2939.10000   0.
    66.11000  2939.20000   0.
    67.65000  2939.20000   0.
    69.19000  2939.10000   0.
    70.73000  2938.90000   0.
    72.26000  2938.60000   0.
    73.80000  2938.30000   0.
    75.34000  2938.50000   0.
    76.88000  2938.70000   0.
    78.41000  2938.60000   0.
    79.95000  2938.80000   0.
    81.49000  2938.90000   0.
    83.03000  2939.10000   0.
    84.56000  2939.10000   0.
     3.42000  2957.55000   0.
     8.97000  2954.51000   0.
    14.52000  2951.86000   0.
    20.07000  2949.38000   0.
    25.63000  2946.59000   0.
    31.18000  2943.67000   0.
    36.73000  2940.99000   0.
    42.28000  2938.62000   0.
    47.83000  2936.87000   0.
    53.39000  2935.46000   0.
    58.94000  2933.69000   0.
    64.49000  2931.95000   0.
    70.04000  2931.81000   0.
    75.60000  2931.36000   0.
    81.15000  2931.70000   0.
     0.51333  2967.60000   0.
     1.02667  2967.10000   0.
     2.05333  2966.03333   0.
     2.56667  2965.46667   0.
     3.59000  2964.63333   0.
     4.10000  2964.36667   0.
     5.12333  2963.83333   0.
     5.63667  2963.56667   0.
     6.66333  2963.06667   0.
     7.17667  2962.83333   0.
     8.20333  2962.23333   0.
     8.71667  2961.86667   0.
     9.74000  2961.23333   0.
    10.25000  2960.96667   0.
    11.27333  2960.46667   0.
    11.78667  2960.23333   0.
    12.81333  2959.76667   0.
    13.32667  2959.53333   0.
    14.35333  2959.10000   0.
    14.86667  2958.90000   0.
    15.89000  2958.50000   0.
    16.40000  2958.30000   0.
    17.42333  2957.83333   0.
    17.93667  2957.56667   0.
    18.96333  2957.06667   0.
    19.47667  2956.83333   0.
    20.50000  2956.33333   0.
    21.01000  2956.06667   0.
    22.03333  2955.53333   0.
    22.54667  2955.26667   0.
    23.57333  2954.76667   0.
    24.08667  2954.53333   0.
    25.11333  2954.03333   0.
    25.62667  2953.76667   0.
    26.65333  2953.26667   0.
    27.16667  2953.03333   0.
    28.19000  2952.50000   0.
    28.70000  2952.20000   0.
    29.72333  2951.63333   0.
    30.23667  2951.36667   0.
    31.26333  2950.80000   0.
    31.77667  2950.50000   0.
    32.80333  2949.96667   0.
    33.31667  2949.73333   0.
    34.34000  2949.23333   0.
    34.85000  2948.96667   0.
    35.87333  2948.50000   0.
    36.38667  2948.30000   0.
    37.41333  2947.83333   0.
    37.92667  2947.56667   0.
    38.95333  2947.10000   0.
    39.46667  2946.90000   0.
    40.49000  2946.50000   0.
    41.00000  2946.30000   0.
    42.02333  2945.90000   0.
    42.53667  2945.70000   0.
    43.56333  2945.36667   0.
    44.07667  2945.23333   0.
    45.10333  2944.90000   0.
    45.61667  2944.70000   0.
    46.64000  2944.36667   0.
    47.15000  2944.23333   0.
    48.17333  2943.93333   0.
    48.68667  2943.76667   0.
    49.71333  2943.53333   0.
    50.22667  2943.46667   0.
    51.25333  2943.26667   0.
    51.76667  2943.13333   0.
    52.79000  2942.83333   0.
    53.30000  2942.66667   0.
    54.32333  2942.36667   0.
    54.83667  2942.23333   0.
    55.86333  2941.93333   0.
    56.37667  2941.76667   0.
    57.40333  2941.40000   0.
    57.91667  2941.20000   0.
    58.94000  2940.86667   0.
    59.45000  2940.73333   0.
    60.47333  2940.43333   0.
    60.98667  2940.26667   0.
    62.01333  2939.90000   0.
    62.52667  2939.70000   0.
    63.55333  2939.36667   0.
    64.06667  2939.23333   0.
    65.34500  2939.15000   0.
    66.88000  2939.20000   0.
    68.42000  2939.15000   0.
    69.70333  2939.03333   0.
    70.21667  2938.96667   0.
    71.24000  2938.80000   0.
    71.75000  2938.70000   0.
    72.77333  2938.50000   0.
    73.28667  2938.40000   0.
    74.31333  2938.36667   0.
    74.82667  2938.43333   0.
    75.85333  2938.56667   0.
    76.36667  2938.63333   0.
    77.64500  2938.65000   0.
    78.92333  2938.66667   0.
    79.43667  2938.73333   0.
    80.72000  2938.85000   0.
    82.00333  2938.96667   0.
    82.51667  2939.03333   0.
    83.79500  2939.10000   0.
     0.08400  2959.57200   0.
     1.19600  2958.89800   0.
     2.30800  2958.22400   0.
     4.53000  2956.94200   0.
     5.64000  2956.33400   0.
     6.75000  2955.72600   0.
     7.86000  2955.11800   0.
    10.35750  2953.84750   0.
    11.74500  2953.18500   0.
    13.13250  2952.52250   0.
    15.90750  2951.24000   0.
    17.29500  2950.62000   0.
    18.68250  2950.00000   0.
    21.18200  2948.82200   0.
    22.29400  2948.26400   0.
    23.40600  2947.70600   0.
    24.51800  2947.14800   0.
    26.74000  2946.00600   0.
    27.85000  2945.42200   0.
    28.96000  2944.83800   0.
    30.07000  2944.25400   0.
    32.56750  2943.00000   0.
    33.95500  2942.33000   0.
    35.34250  2941.66000   0.
    38.11750  2940.39750   0.
    39.50500  2939.80500   0.
    40.89250  2939.21250   0.
    43.66750  2938.18250   0.
    45.05500  2937.74500   0.
    46.44250  2937.30750   0.
    49.22000  2936.51750   0.
    50.61000  2936.16500   0.
    52.00000  2935.81250   0.
    54.77750  2935.01750   0.
    56.16500  2934.57500   0.
    57.55250  2934.13250   0.
    60.32750  2933.25500   0.
    61.71500  2932.82000   0.
    63.10250  2932.38500   0.
    65.87750  2931.91500   0.
    67.26500  2931.88000   0.
    68.65250  2931.84500   0.
    71.43000  2931.69750   0.
    72.82000  2931.58500   0.
    74.21000  2931.47250   0.
    76.98750  2931.44500   0.
    78.37500  2931.53000   0.
    79.76250  2931.61500   0.
    82.53750  2931.75500   0.
    83.92500  2931.81000   0.
     6.60134  2937.05984   0.
    20.80435  2932.52560   0.
     3.78758  2946.36592   0.
    15.48523  2940.98228   0.
    29.30091  2934.50364   0.
    23.90594  2939.46561   0.
    40.87322  2931.62711   0.
     1.03219  2951.87344   0.
    10.83406  2946.32292   0.
    20.42668  2943.42459   0.
    48.80952  2930.83467   0.
    35.50309  2935.49258   0.
     7.54365  2949.73854   0.
    28.57967  2939.84283   0.
    15.90963  2945.83181   0.
    44.30452  2933.27820   0.
    -0.12722  2955.42655   0.
    24.47411  2943.04615   0.
     4.45051  2952.86019   0.
    40.01017  2935.22543   0.
    52.75593  2931.58993   0.
    13.75183  2934.27842   0.
    32.31862  2938.44653   0.
     0.40990  2931.04902   0.
    19.20708  2946.27332   0.
    57.19103  2930.55709   0.
    -0.97178  2947.27328   0.
    19.39705  2939.49643   0.
    11.08068  2950.12444   0.
    32.86215  2930.47012   0.
     7.41320  2941.82707   0.
    13.76382  2948.77946   0.
    27.17579  2942.79365   0.
     7.27112  2952.68663   0.
     2.71547  2954.94653   0.
    22.91159  2945.17994   0.
     2.00816  2941.86911   0.
    24.73355  2934.79062   0.
    47.86753  2934.00196   0.
    50.62083  2933.29089   0.
    60.15732  2930.28185   0.
    37.65425  2937.53830   0.
    44.64836  2929.77041   0.
    10.93416  2939.02064   0.
     4.26476  2949.76242   0.
    36.78915  2931.78219   0.
     7.36345  2946.13476   0.
    30.92470  2941.06806   0.
     6.19921  2931.10091   0.
    35.16618  2938.51604   0.
    16.36294  2929.87801   0.
    13.43632  2943.77014   0.
    42.64967  2935.50406   0.
    26.89596  2931.23775   0.
     1.59760  2936.73753   0.
    17.19200  2948.13905   0.
    -0.61497  2957.60981   0.
    26.49360  2937.36117   0.
     9.56799  2951.50953   0.
    17.55858  2943.77119   0.
    55.26825  2932.33039   0.
    22.03247  2936.46128   0.
    16.10828  2937.24515   0.
    22.48452  2941.40733   0.
    20.86327  2946.43955   0.
    29.71126  2937.35408   0.
    32.14062  2935.59882   0.
    45.26358  2935.44707   0.
    29.19256  2942.39482   0.
    25.22337  2944.48902   0.
    25.77440  2940.40763   0.
     5.12787  2951.33100   0.
     9.72036  2943.07255   0.
     0.63027  2944.64860   0.
     5.15669  2954.13690   0.
    33.80274  2940.56791   0.
     1.57076  2956.41210   0.
     9.31000  2947.97928   0.
     9.87726  2933.53233   0.
    53.60824  2932.85261   0.
    40.63972  2936.89193   0.
    13.47285  2946.23828   0.
    37.68088  2934.75035   0.
    46.32767  2931.88185   0.
    18.64740  2941.16071   0.
    13.09413  2950.32980   0.
    18.01744  2935.92389   0.
     0.55332  2948.73049   0.
     5.35766  2947.55011   0.
    42.44669  2933.52960   0.
    57.75733  2932.24094   0.
    23.68300  2931.83870   0.
    19.94397  2947.74183   0.
    61.81887  2931.15328   0.
[...]
POINT_DATA      1414
CELL_DATA      2568
SCALARS Resistivity(ohm.m) double 1
LOOKUP_TABLE default
          1103.19959          1764.17518          2258.38762          1045.64872           521.16551          2221.94523          1341.05951          1558.83643          1701.06857          2101.74908           795.03531          2080.17703           581.50410          2308.66773          2289.06817          1952.20505          1596.22480           483.62193           437.91010          2317.29022          1246.25619          1965.58810          1245.41179           562.42829          1885.04230           520.26170           283.75340          2196.23623          2272.71982          2262.35069           459.02280           540.44904          1681.10732           431.30269           386.52628          1705.12971           748.92700           893.21864          1191.08411          1577.12924          1879.54668           702.06640           413.08159          2362.34610           328.74218           459.84128          2879.49562           838.88210           608.22185           966.20480          2497.62728          1885.11949          1033.97321          1603.36635          2215.95852           840.73515           360.75699          2238.38190           418.41718          1099.05591           527.88903          2149.21134           481.55585          1914.44702           284.52024          1603.12729          2121.08283          2045.14196           303.24794           627.01093           514.57446           812.87423          2094.91091           388.77595           352.40834          2983.89637          1432.72293           469.18883           360.82467          2706.46745          2553.85133          1506.64518           395.78320           466.53378          2069.88402           687.11974           337.61586          2163.60995           902.69127          1922.04468          1001.22543           344.40350          2234.63899           393.80663          1789.29462          2034.42313           521.89664          1232.15478          2203.42198           939.85743          1560.77809           518.32827           584.35895           726.31805           992.17667          1734.81388           504.02368           952.05789          2123.80966          1320.60622           424.26208          1173.47910          2579.27430          1833.98696          2080.50036          1310.52360          1088.93997          1521.70367           402.15670           327.64543          2267.78160          1390.40442          2982.36792           693.99114           502.17994          2073.21993          2470.60618          3219.63910          1870.52452          1475.79440          2076.13739          1023.75845          1201.58068          2253.73424           816.41393          2908.83362           417.24917          1694.34499           929.90512          1372.61169          1611.92149           498.52778           561.88107          1392.98499          1671.21979           533.16725           429.60436          1476.72260          1957.92500           515.96573          2268.50785          1946.79653           916.78994           702.87604          2259.94766           322.13036          1672.38791           431.98919          2267.40292          1260.07134          1190.07323           486.24963          2400.51852           471.19978          2213.53941           540.15818          1482.51839          1858.54994          1977.56274          1745.34120           732.84852           750.03746           634.87008           293.21203           378.10808           972.42386           709.47465          3605.49091          2728.78607          1111.67012          2231.88363          1473.46501          2007.94360           679.72565           526.88148           877.89525           762.97072           580.08143           902.04178          2471.37857          1176.93818          2396.95705           517.97969          2595.13717           287.71937           449.78056          2521.57876          2092.06348          1199.49713           379.55727           320.06512           854.46922          1832.17520          1446.33962          1855.09721           966.88817          3926.10247          2257.49396           360.99671          2241.75826          1294.23627           561.80246           383.68163           350.16557           530.90784          1143.73722          2364.33028           518.44762          1217.51261           475.95390           910.46377          1334.69841          1072.48954           365.94716           611.32930           557.84075           404.61402           478.78460          1289.61910           323.14077          1098.41206          2054.95114          1405.43914          3043.03908          2318.31108          1714.38678          2358.12267          1481.43675          1411.68712          1354.85636          2571.20653           638.09410           860.40816           385.06220          2417.39903           299.46024          1881.83509           477.21208           473.84393          2156.29397           289.50486          2062.97630          1767.19481           594.77515          2013.15601           942.05920           621.68696           631.20610           666.68154          2992.18714           556.17888          2210.40227           484.43097           396.56473           424.02558          1679.70446           367.00545          2239.60702           796.59220          2269.36105          1037.79349          2136.28103          2492.81165          2197.23890           492.22486          1629.80960          2225.09133           497.02090           707.19599           647.82255           506.77769          1388.23777           307.51880           891.17537           935.11364          2256.32479           420.30884          2339.16564           602.26042           469.06987           975.25937           338.88389          2277.47482           567.04270          1958.93557          2242.94988          1443.58661           493.01368           408.29717           564.49463          1045.39015           414.09026          2415.29158          2558.83948           417.30197          1857.84624          1295.34318          1532.02183          1992.16382           409.96585           594.09423           564.73762           299.98877          2243.38338           801.29167           363.83027           497.70953          1201.63412          2864.41953           496.78202          3346.62556           366.02464           908.45308           454.64944           480.67153          1158.23562           446.38604          1401.24416           958.58996          2863.81831          1787.70836          2168.07818           450.44248          1611.86054           332.96520           364.76360           517.79776           569.60304          3212.09124           522.46110          2148.72272           446.73373          2123.25884           450.55051           528.22706          1830.33118          1188.10565          1067.81913           445.26949          2167.04093           470.58871          2460.96210           683.03010           409.90767           417.17890          2084.53259           470.01355          1608.56632           313.61480           357.91114           853.25817          1534.43903           908.22462           464.02939          1340.24399           447.76899           391.08106          2265.29557          1807.41708          2732.67570           490.16830          1289.26105          1401.33799          1052.55043           301.20997          2656.18663           373.07010           518.31713           436.65341          2036.48414          1347.86697           466.70907          1821.75632          2349.37886           298.65865          1336.72618           547.99529          1395.41738           402.07637          1542.16371           604.13565           322.27700          1432.83049          1403.44462           447.02802           827.36203           499.26400          1407.31781          1753.23056          1044.54540           547.12490           540.50846          1332.94499          1468.78802          1297.15781           785.03372           517.88599           846.83845          2233.67245          1669.33634          1521.45253          2180.75236          1048.22268           579.63601          1166.82751          2397.53031           677.24453           826.78963           685.50340          1777.77650          1008.84532           351.10447          2183.22640          1447.62160          1270.85138           292.06173          1684.11777           550.78119          1393.71381           475.51102          1322.13736           478.02357           450.97336          1933.99675          1015.86672          1468.28830          1511.78720           631.72298          1930.28013          1354.81579          3579.75473           547.36925          1131.77331          2042.54140          1086.36994          1078.12261          1278.37055          1169.24453          4280.30786           757.44183          3330.62485          1580.16083          1555.31423          1265.49132          1740.91575           779.11451          2185.02098           817.05685          1390.59339           457.12338          1905.27553          1314.23325           779.23699          1383.07814          2178.14470           757.78657           888.11418          1234.76050          1755.62454          1685.54531           849.09305          1828.17398           843.27131           297.09721          1931.83414          3976.53220          1092.31090           395.71996          1559.13365           700.80097          1099.20610          1958.04174           452.75046           507.93222          2145.56458          2648.04633          1310.10213           395.47121           685.60598           741.83752          1258.54979          1184.82010           983.45224          1537.93849           708.26207          1483.28601           686.80742          1029.93040          2621.97472          1817.14545           659.21505           361.55242           570.16044          1274.21873           706.91898          1214.55927          3757.02285          1238.04239           337.76632           434.67826          1313.72025          1184.45788           857.51946           371.26241          3257.32864          1413.06196           344.71858          3413.57660          2239.37799           459.97137          1400.43192          1221.22003          1014.51145          1229.01583          1029.48191           477.62361          1654.17043          1450.07763          1469.83972          1355.32161           618.41678          1799.83310           492.93222          1276.78964           504.33144           466.37842           646.01608          1741.25999          1074.35175           825.28070           487.35836           366.16409          1718.91457          1119.26275          4466.30931          5199.84756          3448.84737          2003.95619          1865.06513          2200.61363          3666.60564          5441.21717           665.29947          4635.73532           383.54357          1058.94144          1454.82709           520.01670          4056.94621          5622.96187          1232.00993           422.22817          1849.38928          2499.27172           731.80433           744.14295          1345.71028          4342.04914          1088.55174          2373.60309          1132.13509           486.64774          1556.99999          1454.03969           410.15725          3234.39881           531.95142          1251.03486          5749.12637          3833.44831          1570.75079          6392.56038           326.24853           799.52041           484.85557          1711.89011          2594.29072          1645.42184          2636.79238          1639.22041          2447.65555           809.23473          1502.35698          1317.66464          1737.70149          8940.89159          3393.83774           898.34372          4812.17682          3595.14890           802.31792           693.35669          5585.04578          2647.13586          4285.25281          6082.13077          1332.59432           772.36882           672.78451           436.45594           768.39716          4479.39134          1536.28903           972.82881          1592.57397           363.66132          1102.20317          1620.12134          3899.99652           830.38079           863.73231           675.19244           729.52568          1507.78705          1320.76700           691.13567          3060.87067          2798.30346          3190.14801          3072.90708          5757.20921          4723.45317          2406.27051           530.21961          4383.67854          1091.07833          1520.95621           695.02894          1305.88764           883.13812           351.39131          7753.13076          5150.26379          1423.93943          1429.68665          2608.63768          2030.70432          2937.64615          3020.26865           842.43116          1038.93012           538.99449           887.07846           377.25847           547.86822           845.56480           510.78487          1823.65842          4694.59502          3260.01051          1438.08498          2145.53924          1279.50538          1443.28317          8063.77590          5195.49126          1762.12537           402.05827           629.07072          5841.54521           643.67533          3851.90486          4450.69358          1068.24594          2271.46830           590.21993          1042.30847          1083.53901          2174.13368          2228.33743          2608.60596           543.77798           457.68531          1232.86914           379.14681           570.55636           390.80005          3265.18365          4792.77853           435.80158          2858.06911           760.64886          2453.12392          1329.40615           721.16072           587.28598           670.83669           550.71110          1792.02989           673.57884          1325.50616           635.27482          2644.67742          1753.86978          3781.28185          2830.34808           566.78714           557.62401           363.03115          2801.62795           661.46405           619.49239          1149.04973          2532.95512           824.08002           762.64798           504.35066          1127.93584          1059.53606          1410.50227          1340.89124           530.18124           760.36137           741.45392          2500.19391          1960.16470          1169.96677          7838.76463          1060.82275           712.92241           830.94653          1232.98069          2171.42864          1534.67544          1536.67725          1347.18864          2619.12648           887.00146          6863.36618          1318.68243          2564.37686           676.77081          1235.79187          3768.60204          3167.08239           717.91123           982.77589          3119.30907           487.02559           536.72289          1180.31585          2923.31612          6488.35221          1469.28555          7129.98297          1104.09883          1544.27093          1462.22746          1294.20696           433.34488           752.73838          2518.58251           682.34366          3829.99115           536.26075          2997.94471           856.42412           569.12576          1284.72234          2015.25222          2658.35673          4859.97145          2569.77375          1573.65194          1620.09648          1379.42617          6032.29778          7398.60643          1868.84311           892.32469          2751.85088           533.37765          1199.24390           790.00628          2410.07989          1230.69201          1036.02991           598.73131           534.07231          3652.80251           848.17428           697.90024          6277.97493          3700.17956          2357.02630          1223.57950          7776.75406           744.46367          2216.53427          2847.29135          1969.99517           929.77808          2951.65918          5534.10609          1570.45109           394.67778           709.00742           806.78702          1556.03153          1608.50206           569.95102           685.36140          6526.27538           720.47853          1106.91057          1801.71634          3700.25537          5452.41756           392.24354          1216.82855           819.37760           984.44569          1643.95085           678.91286           760.86885          1436.62315           877.32009           516.74678           363.16698           817.17031          2776.10856           489.50897          2809.46712          1521.18660          2084.52065          1277.28979          1639.53421          1520.09709           381.11266          3469.16467          1275.09417          1785.27199          1676.71697          2097.16752          5593.75679          1038.73741          5381.82486           587.75907           704.25418          1445.01956          1256.22647          7555.92751          2523.66197           766.02969          1591.98058          3926.71763          3368.89791           681.79703          4545.69250          1324.06604          2782.13673          1035.78954          3751.24893          3699.20535           518.29822          3411.89729          4318.44453          2302.41160          5287.31548           802.81137           814.49260          1242.44047          2272.51927           446.44545          7252.11129          4263.47338           701.40893          1572.90287          1462.99430          1893.42052           773.17572          1209.70166         11890.32026           691.27379          2242.35907          1193.59096           485.11840           731.35110          2287.79177          4735.12967          6269.11449          1622.58223          2649.13758          2425.96902          4675.57236           788.00738          1282.07943          1916.45748          1653.02241          5207.94817           540.97801          1238.21443          2735.87406           768.71551          3597.72048          2049.01728          6833.88437          2005.72848          1086.75844          1203.01026           546.24416          5149.53286          7318.72190          1831.05014           360.85790           375.32166           730.70605           763.53080          6419.97470          1455.08795          2064.36199          2926.26384          2804.99552          5498.37721          5498.27727           363.25338           629.58527           725.72297          1226.56030           592.80030          4463.95943          3798.85743          1195.62099           748.92357          1042.11144          2235.53266          3629.06112          2186.51571          1836.48720           729.62040          4251.19470          6790.37050           483.66463           683.04669          1632.58272          7659.58389          1789.19305          3137.00848          5154.32016           785.62991          1637.18771          4592.09243           609.84310          1454.75015          1041.31463          4763.53197           813.42595          1713.05357          3088.84912          5641.52987          3879.60070          6079.70784          4876.70065          4011.61854          1738.17452           813.45176          3413.16611          8259.34620           523.19025          2289.32166          2407.78833           307.98698          2362.31826          3193.38865          2337.79626           467.02982          4329.91065           838.48048          3197.92622          3876.65485          1678.62379           700.57928          2791.19275          3465.14449          5625.42155          6246.49354          5474.89291           687.11970           557.39088          1072.60190          5016.82967          1033.63017          2619.76957           719.09515           703.815