# vtk DataFile Version 3.0
Output from R2
ASCII
DATASET UNSTRUCTURED_GRID
POINTS       1414 double
     0.00000  2968.10000   0.
     1.54000  2966.60000   0.
     3.08000  2964.90000   0.
     4.61000  2964.10000   0.
     6.15000  2963.30000   0.
     7.69000  2962.60000   0.
     9.23000  2961.50000   0.
    10.76000  2960.70000   0.
    12.30000  2960.00000   0.
    13.84000  2959.30000   0.
    15.38000  2958.70000   0.
    16.91000  2958.10000   0.
    18.45000  2957.30000   0.
    19.99000  2956.60000   0.
    21.52000  2955.80000   0.
    23.06000  2955.00000   0.
    24.60000  2954.30000   0.
    26.14000  2953.50000   0.
    27.68000  2952.80000   0.
    29.21000  2951.90000   0.
    30.75000  2951.10000   0.
    32.29000  2950.20000   0.
    33.83000  2949.50000   0.
    35.36000  2948.70000   0.
    36.90000  2948.10000   0.
    38.44000  2947.30000   0.
    39.98000  2946.70000   0.
    41.51000  2946.10000   0.
    43.05000  2945.50000   0.
    44.59000  2945.10000   0.
    46.13000  2944.50000   0.
    47.66000  2944.10000   0.
    49.20000  2943.60000   0.
    50.74000  2943.40000   0.
    52.28000  2943.00000   0.
    53.81000  2942.50000   0.
    55.35000  2942.10000   0.
    56.89000  2941.60000   0.
    58.43000  2941.00000   0.
    59.96000  2940.60000   0.
    61.50000  2940.10000   0.
    63.04000  2939.50000   0.
    64.58000  2939.10000   0.
    66.11000  2939.20000   0.
    67.65000  2939.20000   0.
    69.19000  2939.10000   0.
    70.73000  2938.90000   0.
    72.26000  2938.60000   0.
    73.80000  2938.30000   0.
    75.34000  2938.50000   0.
    76.88000  2938.70000   0.
    78.41000  2938.60000   0.
    79.95000  2938.80000   0.
    81.49000  2938.90000   0.
    83.03000  2939.10000   0.
    84.56000  2939.10000   0.
     3.42000  2957.55000   0.
     8.97000  2954.51000   0.
    14.52000  2951.86000   0.
    20.07000  2949.38000   0.
    25.63000  2946.59000   0.
    31.18000  2943.67000   0.
    36.73000  2940.99000   0.
    42.28000  2938.62000   0.
    47.83000  2936.87000   0.
    53.39000  2935.46000   0.
    58.94000  2933.69000   0.
    64.49000  2931.95000   0.
    70.04000  2931.81000   0.
    75.60000  2931.36000   0.
    81.15000  2931.70000   0.
     0.51333  2967.60000   0.
     1.02667  2967.10000   0.
     2.05333  2966.03333   0.
     2.56667  2965.46667   0.
     3.59000  2964.63333   0.
     4.10000  2964.36667   0.
     5.12333  2963.83333   0.
     5.63667  2963.56667   0.
     6.66333  2963.06667   0.
     7.17667  2962.83333   0.
     8.20333  2962.23333   0.
     8.71667  2961.86667   0.
     9.74000  2961.23333   0.
    10.25000  2960.96667   0.
    11.27333  2960.46667   0.
    11.78667  2960.23333   0.
    12.81333  2959.76667   0.
    13.32667  2959.53333   0.
    14.35333  2959.10000   0.
    14.86667  2958.90000   0.
    15.89000  2958.50000   0.
    16.40000  2958.30000   0.
    17.42333  2957.83333   0.
    17.93667  2957.56667   0.
    18.96333  2957.06667   0.
    19.47667  2956.83333   0.
    20.50000  2956.33333   0.
    21.01000  2956.06667   0.
    22.03333  2955.53333   0.
    22.54667  2955.26667   0.
    23.57333  2954.76667   0.
    24.08667  2954.53333   0.
    25.11333  2954.03333   0.
    25.62667  2953.76667   0.
    26.65333  2953.26667   0.
    27.16667  2953.03333   0.
    28.19000  2952.50000   0.
    28.70000  2952.20000   0.
    29.72333  2951.63333   0.
    30.23667  2951.36667   0.
    31.26333  2950.80000   0.
    31.77667  2950.50000   0.
    32.80333  2949.96667   0.
    33.31667  2949.73333   0.
    34.34000  2949.23333   0.
    34.85000  2948.96667   0.
    35.87333  2948.50000   0.
    36.38667  2948.30000   0.
    37.41333  2947.83333   0.
    37.92667  2947.56667   0.
    38.95333  2947.10000   0.
    39.46667  2946.90000   0.
    40.49000  2946.50000   0.
    41.00000  2946.30000   0.
    42.02333  2945.90000   0.
    42.53667  2945.70000   0.
    43.56333  2945.36667   0.
    44.07667  2945.23333   0.
    45.10333  2944.90000   0.
    45.61667  2944.70000   0.
    46.64000  2944.36667   0.
    47.15000  2944.23333   0.
    48.17333  2943.93333   0.
    48.68667  2943.76667   0.
    49.71333  2943.53333   0.
    50.22667  2943.46667   0.
    51.25333  2943.26667   0.
    51.76667  2943.13333   0.
    52.79000  2942.83333   0.
    53.30000  2942.66667   0.
    54.32333  2942.36667   0.
    54.83667  2942.23333   0.
    55.86333  2941.93333   0.
    56.37667  2941.76667   0.
    57.40333  2941.40000   0.
    57.91667  2941.20000   0.
    58.94000  2940.86667   0.
    59.45000  2940.73333   0.
    60.47333  2940.43333   0.
    60.98667  2940.26667   0.
    62.01333  2939.90000   0.
    62.52667  2939.70000   0.
    63.55333  2939.36667   0.
    64.06667  2939.23333   0.
    65.34500  2939.15000   0.
    66.88000  2939.20000   0.
    68.42000  2939.15000   0.
    69.70333  2939.03333   0.
    70.21667  2938.96667   0.
    71.24000  2938.80000   0.
    71.75000  2938.70000   0.
    72.77333  2938.50000   0.
    73.28667  2938.40000   0.
    74.31333  2938.36667   0.
    74.82667  2938.43333   0.
    75.85333  2938.56667   0.
    76.36667  2938.63333   0.
    77.64500  2938.65000   0.
    78.92333  2938.66667   0.
    79.43667  2938.73333   0.
    80.72000  2938.85000   0.
    82.00333  2938.96667   0.
    82.51667  2939.03333   0.
    83.79500  2939.10000   0.
     0.08400  2959.57200   0.
     1.19600  2958.89800   0.
     2.30800  2958.22400   0.
     4.53000  2956.94200   0.
     5.64000  2956.33400   0.
     6.75000  2955.72600   0.
     7.86000  2955.11800   0.
    10.35750  2953.84750   0.
    11.74500  2953.18500   0.
    13.13250  2952.52250   0.
    15.90750  2951.24000   0.
    17.29500  2950.62000   0.
    18.68250  2950.00000   0.
    21.18200  2948.82200   0.
    22.29400  2948.26400   0.
    23.40600  2947.70600   0.
    24.51800  2947.14800   0.
    26.74000  2946.00600   0.
    27.85000  2945.42200   0.
    28.96000  2944.83800   0.
    30.07000  2944.25400   0.
    32.56750  2943.00000   0.
    33.95500  2942.33000   0.
    35.34250  2941.66000   0.
    38.11750  2940.39750   0.
    39.50500  2939.80500   0.
    40.89250  2939.21250   0.
    43.66750  2938.18250   0.
    45.05500  2937.74500   0.
    46.44250  2937.30750   0.
    49.22000  2936.51750   0.
    50.61000  2936.16500   0.
    52.00000  2935.81250   0.
    54.77750  2935.01750   0.
    56.16500  2934.57500   0.
    57.55250  2934.13250   0.
    60.32750  2933.25500   0.
    61.71500  2932.82000   0.
    63.10250  2932.38500   0.
    65.87750  2931.91500   0.
    67.26500  2931.88000   0.
    68.65250  2931.84500   0.
    71.43000  2931.69750   0.
    72.82000  2931.58500   0.
    74.21000  2931.47250   0.
    76.98750  2931.44500   0.
    78.37500  2931.53000   0.
    79.76250  2931.61500   0.
    82.53750  2931.75500   0.
    83.92500  2931.81000   0.
     6.60134  2937.05984   0.
    20.80435  2932.52560   0.
     3.78758  2946.36592   0.
    15.48523  2940.98228   0.
    29.30091  2934.50364   0.
    23.90594  2939.46561   0.
    40.87322  2931.62711   0.
     1.03219  2951.87344   0.
    10.83406  2946.32292   0.
    20.42668  2943.42459   0.
    48.80952  2930.83467   0.
    35.50309  2935.49258   0.
     7.54365  2949.73854   0.
    28.57967  2939.84283   0.
    15.90963  2945.83181   0.
    44.30452  2933.27820   0.
    -0.12722  2955.42655   0.
    24.47411  2943.04615   0.
     4.45051  2952.86019   0.
    40.01017  2935.22543   0.
    52.75593  2931.58993   0.
    13.75183  2934.27842   0.
    32.31862  2938.44653   0.
     0.40990  2931.04902   0.
    19.20708  2946.27332   0.
    57.19103  2930.55709   0.
    -0.97178  2947.27328   0.
    19.39705  2939.49643   0.
    11.08068  2950.12444   0.
    32.86215  2930.47012   0.
     7.41320  2941.82707   0.
    13.76382  2948.77946   0.
    27.17579  2942.79365   0.
     7.27112  2952.68663   0.
     2.71547  2954.94653   0.
    22.91159  2945.17994   0.
     2.00816  2941.86911   0.
    24.73355  2934.79062   0.
    47.86753  2934.00196   0.
    50.62083  2933.29089   0.
    60.15732  2930.28185   0.
    37.65425  2937.53830   0.
    44.64836  2929.77041   0.
    10.93416  2939.02064   0.
     4.26476  2949.76242   0.
    36.78915  2931.78219   0.
     7.36345  2946.13476   0.
    30.92470  2941.06806   0.
     6.19921  2931.10091   0.
    35.16618  2938.51604   0.
    16.36294  2929.87801   0.
    13.43632  2943.77014   0.
    42.64967  2935.50406   0.
    26.89596  2931.23775   0.
     1.59760  2936.73753   0.
    17.19200  2948.13905   0.
    -0.61497  2957.60981   0.
    26.49360  2937.36117   0.
     9.56799  2951.50953   0.
    17.55858  2943.77119   0.
    55.26825  2932.33039   0.
    22.03247  2936.46128   0.
    16.10828  2937.24515   0.
    22.48452  2941.40733   0.
    20.86327  2946.43955   0.
    29.71126  2937.35408   0.
    32.14062  2935.59882   0.
    45.26358  2935.44707   0.
    29.19256  2942.39482   0.
    25.22337  2944.48902   0.
    25.77440  2940.40763   0.
     5.12787  2951.33100   0.
     9.72036  2943.07255   0.
     0.63027  2944.64860   0.
     5.15669  2954.13690   0.
    33.80274  2940.56791   0.
     1.57076  2956.41210   0.
     9.31000  2947.97928   0.
     9.87726  2933.53233   0.
    53.60824  2932.85261   0.
    40.63972  2936.89193   0.
    13.47285  2946.23828   0.
    37.68088  2934.75035   0.
    46.32767  2931.88185   0.
    18.64740  2941.16071   0.
    13.09413  2950.32980   0.
    18.01744  2935.92389   0.
     0.55332  2948.73049   0.
     5.35766  2947.55011   0.
    42.44669  2933.52960   0.
    57.75733  2932.24094   0.
    23.68300  2931.83870   0.
    19.94397  2947.74183   0.
    61.81887  2931.15328   0.
[...]
POINT_DATA      1414
CELL_DATA      2568
SCALARS Resistivity(ohm.m) double 1
LOOKUP_TABLE default
          1080.81338          1572.04429          2261.05433          1038.97151           574.88812          2099.75730          1309.72359          1513.41750          1551.93226          1943.17449           819.07005          1954.18461           650.59035          2227.50128          2193.77195          1879.24330          1428.33717           423.28267           494.86688          2288.51352          1219.96764          1840.61037          1154.23279           622.12171          1691.71021           533.99272           240.28392          2042.92491          2160.47664          2224.42065           518.12030           523.75115          1498.48482           380.41378           355.83221          1683.19437           738.56799           936.80978          1114.92197          1555.06323          1727.70568           732.31296           456.29362          2276.13595           329.32499           398.31524          3005.86210           865.62312           665.09014           938.24739          2586.58435          1702.57810          1033.93118          1440.86602          2313.86921           895.30902           352.89363          2144.26600           464.62432          1091.31048           600.30579          2002.45963           418.84366          1813.17487           249.34282          1461.78934          1932.70328          1862.21312           280.71063           697.13294           492.17887           792.95048          1947.00648           391.59343           305.97565          2979.69916          1322.21691           426.66406           326.01627          2818.26571          2648.97075          1456.81614           443.59972           412.57450          1901.56836           757.55294           329.14608          2034.70404           874.36818          1732.71324          1018.22230           357.44351          2135.27834           351.00668          1791.29380          1869.33568           556.85676          1199.54939          2078.00604           971.31837          1408.79675           590.51984           663.14393           763.21276           964.78675          1574.48425           555.29950           966.12027          2177.70266          1271.17198           367.90018          1136.43643          2532.04475          1660.92652          1935.76870          1207.88315          1053.62626          1363.96164           451.24178           309.67608          2204.98088          1279.18682          3053.82599           762.49553           518.60332          1877.59930          2399.82410          3266.90664          1731.25770          1436.72157          1877.86561          1019.56248          1119.22848          2148.44017           857.39286          2881.57690           367.30763          1526.20725           963.84956          1257.72798          1440.69325           559.49015           639.14620          1355.64260          1491.58754           607.73057           477.70922          1335.71179          1760.90471           608.96411          2258.38471          1773.95259           943.72853           714.43788          2164.84551           276.51034          1605.81085           382.59852          2157.15444          1160.95566          1167.65312           547.88027          2305.67816           490.71787          2085.46079           618.50220          1452.20040          1822.97342          1829.85933          1559.97782           748.43292           804.16293           712.72471           261.79551           423.64509           950.34181           781.05284          3545.60677          2686.52565          1102.68845          2114.83819          1418.26623          1802.97951           754.56487           600.81508           924.15133           830.84634           658.12524           890.58737          2448.91731          1102.94663          2358.20971           586.91405          2654.67697           257.79261           511.00012          2570.47445          1904.17974          1145.62855           424.25398           275.46933           834.08366          1678.72397          1302.83177          1799.17987           987.06405          3825.66026          2303.00574           396.23744          2184.09199          1187.38417           639.84157           432.98552           327.99589           644.10669          1103.41797          2288.86893           477.33492          1166.69709           541.75744           883.83390          1275.26527          1071.46113           334.83010           685.15182           627.13072           380.82583           540.52720          1195.70843           316.99496          1066.85003          2048.21808          1282.41605          3007.10552          2272.84860          1629.81120          2339.94103          1420.36780          1336.26964          1239.81309          2585.62185           697.82824           910.04963           401.14079          2406.72741           254.78930          1684.26563           513.94195           422.31434          2004.12346           243.34136          2009.00582          1655.58048           670.71155          1808.88228           969.60590           668.91376           708.63589           734.56640          2949.71018           639.16979          2094.01852           472.23203           429.46360           469.81896          1578.89037           350.36121          2169.80968           858.11442          2337.93842          1013.19119          2059.71518          2414.98476          2048.05794           437.45758          1461.42182          2191.23858           422.40659           709.46498           682.92183           424.84017          1260.95070           267.50135           930.42388           937.16356          2235.93662           475.79196          2321.73566           672.68036           470.91165           946.42619           295.87690          2189.00285           631.47905          1754.48327          2146.47088          1348.57411           559.78725           434.78183           641.28462          1012.73347           464.00407          2447.70689          2530.42523           386.49140          1688.57259          1186.11092          1372.81609          1838.33016           379.37211           667.42660           641.89213           283.85357          2165.64301           805.80662           324.07494           526.52014          1165.25340          2815.52093           453.65917          3309.92940           394.77415           863.17936           454.25973           548.19132          1095.40949           483.04329          1275.77987           977.94680          2888.70050          1596.55269          1995.31058           497.69448          1510.15745           343.24604           404.14603           588.96264           646.15923          3199.02726           634.03615          1988.47925           399.26349          1932.71186           446.85263           602.65315          1652.67525          1162.03276          1064.65721           479.23420          2000.57501           436.74807          2418.43999           758.43086           358.43771           473.83936          1901.43284           522.08135          1490.26449           310.85958           385.60543           844.07534          1385.70202           922.40714           505.50469          1219.97825           477.98843           346.80267          2210.44678          1674.89889          2680.19375           413.76974          1183.77188          1268.11018          1019.02279           281.16468          2660.18952           411.44981           454.60091           409.10075          1850.51023          1228.78415           410.02018          1660.40036          2309.06501           250.02881          1218.78302           626.80195          1342.31429           454.70709          1458.63727           668.88091           331.65228          1295.31364          1378.75832           425.93347           836.83080           546.89148          1362.03782          1575.15442          1035.88810           630.41522           597.85084          1234.04985          1343.87422          1213.73876           849.31737           574.89730           901.62754          2132.10235          1518.15535          1408.97107          2040.96812          1031.75652           606.69895          1134.25816          2423.29808           696.21382           773.31151           737.71356          1635.35674          1000.99905           382.52069          2033.57292          1375.09876          1209.40756           269.50647          1636.90873           630.47301          1260.86467           476.92128          1241.98542           459.73934           415.65882          1951.78642          1028.66590          1323.03137          1389.41488           684.00293          1763.90815          1312.74863          3533.33293           640.74092          1087.04772          2112.20180          1053.60095          1077.77615          1179.78698          1109.15756          4182.30043           826.26440          3328.81355          1436.97982          1498.78876          1224.58442          1684.09615           837.81492          2055.74864           877.06112          1332.79240           412.67948          1700.89804          1212.84889           845.49341          1336.95374          2017.15947           824.21815           887.76030          1200.54483          1720.54720          1546.76567           825.79401          1629.41072           890.10416           267.31938          1727.38761          3890.45998          1075.24303           441.27907          1481.37929           760.22129          1070.65707          1948.67656           515.61616           537.56943          1975.62401          2785.19454          1269.52421           343.28136           694.22291           803.40478          1169.80891          1157.77847           991.86693          1396.23832           782.12510          1349.71813           762.41923          1039.79314          2555.20472          1623.20030           699.38940           314.21593           647.75294          1221.18815           779.73710          1175.79623          3696.25194          1167.84547           358.48028           494.12975          1273.45979          1147.85175           896.06883           397.75881          3218.11566          1296.95405           365.27036          3366.91204          2125.58419           396.80560          1305.08271          1147.89113          1021.79353          1199.23771          1035.87697           532.60385          1566.33637          1316.70397          1329.59927          1310.92092           696.83646          1699.55014           419.28719          1236.41388           557.72876           405.50607           724.01394          1572.28309          1069.58021           883.05326           414.69435           385.19292          1541.34278          1097.91604          4193.37460          4916.98490          3213.32390          1732.49936          1797.16980          2465.27996          4224.56722          4984.16424           677.34098          4701.69409           425.81125           962.87346          1319.93758           704.85883          4222.68226          5900.25072          1120.02027           437.51145          2117.16867          2674.66048           676.64466           854.34478          1314.31663          4052.04291          1464.25139          2226.08444          1192.62866           678.08105          1317.24781          1474.34546           525.29739          3377.92366           515.32067          1275.84406          5425.21405          3579.96435          1742.17042          5856.74497           272.80056           795.51594           503.12388          1809.98175          2772.38769          1709.55613          3353.00647          1825.28077          2526.27323           663.04541          1509.32316          1314.86993          1949.94764          9646.58662          3131.50010           896.72812          4448.69719          4457.97756           835.26394           618.45137          6073.34956          2536.80819          3917.54235          5513.58567          1343.85691           715.60905           692.90192           468.43703           700.63810          4965.20720          1586.27557           881.00167          1594.12525           321.18827          1020.03034          1644.63849          3705.67899          1088.13361           897.68636           690.14260           661.96306          1440.11782          1363.86391           888.45366          2909.06146          2638.06350          3331.53992          3164.14528          5119.80490          5280.39615          2342.73773           520.27094          4419.58207          1115.95975          1563.57817           710.76898          1270.11074           860.39597           385.66508          7256.19478          5058.72510          1421.81205          1522.90593          2828.98882          2108.13888          2705.94923          2712.92710           768.30044          1017.82929           551.22952          1034.08744           375.98354           511.45412           802.90189           612.21871          2094.25129          5670.73948          3362.26529          1464.61168          2498.93848          1294.78992          1535.98123          8136.73650          5057.92618          1853.01449           389.54661           646.12179          6097.95561           640.53164          3604.19446          4609.88656           974.14624          2433.08314           686.15869          1066.88395           975.73241          2448.11137          2448.57452          2486.44751           638.90105           467.53783          1158.39047           316.15815           578.02542           451.59485          3100.05712          5165.47690           532.25867          2756.31126           822.25869          2441.26721          1150.32259           845.52340           669.57085           637.57273           547.89267          2002.48178           802.15017          1304.57718           718.49878          2811.64497          1810.68662          4726.85620          2324.58781           561.11308           547.33752           304.08291          2906.60542           669.96159           733.95092          1168.23963          2528.93906          1011.71720           711.19201           479.95728          1133.79357          1109.17296          1665.70051          1356.07555           556.46089           732.72793           595.42350          2633.12971          2453.12666          1188.86978          8016.14762           948.44423           763.94517           847.59364          1289.38779          2596.01021          1523.75889          1394.28325          1462.74581          2404.34547           853.53416          7199.68855          1557.40575          2751.57215           710.51947          1179.40863          3876.27937          3170.56451           737.11552          1003.91666          2930.96936           482.48380           486.38349          1084.53866          2449.37984          6611.51811          1422.88075          7000.89777          1251.37276          1511.06147          1466.10264          1129.09723           451.26847           698.03326          2690.69553           687.63429          4044.53111           657.41787          2986.18561           874.77909           722.17603          1333.18215          2087.34131          2845.61558          4683.29759          2527.77379          1387.52744          1614.87970          1193.50666          6525.77214          7588.90989          1982.29703           939.75601          2679.41599           548.89008          1105.86850           863.12706          2411.58952          1122.42192           998.15905           565.81684           560.74241          3533.82471           900.54376           677.92956          6240.62759          4184.79395          2172.75362          1243.53959          8625.38213           776.89569          2257.97602          3319.16596          1856.09920          1027.51140          2740.96055          6100.27440          1606.31251           384.24484           606.22479           814.23417          1829.42108          1612.19287           563.14210           630.70889          6958.52434           667.64986          1300.56386          1828.20765          3353.75266          6384.89914           422.29313          1220.37781           754.70484           985.03392          1901.88127           623.15233           789.22674          1739.41681           775.56277           667.68203           382.15943           783.29020          3024.76908           517.04220          3031.61148          1538.52062          2225.69181          1186.22972          1647.43638          1523.33661           388.72773          3803.42541          1544.12275          1922.28138          1627.30697          2414.40556          6774.80772           963.14201          4895.98036           507.86399           689.90233          1321.74401          1121.15135          7599.95051          2650.79655           768.39973          1625.52667          4211.97262          3141.64010           560.16283          5853.20643          1386.51445          2680.91981          1024.66514          3701.24103          3515.82579           505.25849          3365.23358          4290.07175          2374.16357          5888.71082           740.63798           781.38918          1108.33922          2348.21964           498.75234          8145.57191          4287.22867           600.78913          1568.26644          1615.99852          1879.11425           753.71238          1128.98061         13337.55362           702.73036          2124.74289          1165.69220           461.66602           765.76584          2193.44700          5081.24488          6967.93605          1659.87525          2477.61301          2327.03444          4528.62383           701.55025          1283.91976          2308.83816          1958.75055          5456.54278           565.95943          1117.87688          2636.19247           695.01499          3202.22810          2056.38836          6395.85722          2575.99978          1439.26298          1118.47619           553.83778          5839.13468          7019.18319          2511.04163           338.59525           361.80758           803.83196           733.66211          6307.12487          1278.16301          1819.69866          2929.91360          2889.49078          5480.98802          5911.03523           356.99142           536.06073           666.04366          1211.27743           569.52280          4482.11825          3742.26520          1325.06751           948.66251           985.24471          2489.83127          3705.06312          2115.09978          1753.06866           750.06485          4518.80468          7207.57541           469.82995           650.67633          1698.35024          7304.82522          2121.30692          2850.87852          4892.81420           930.57944          1925.43066          4804.75925           565.05495          1450.53270          1104.69863          4759.70883           847.02003          1730.01925          3058.15959          5852.14292          5041.31238          5719.86397          4634.99327          3835.41472          1649.11626           749.48011          3778.68403          9324.29018           689.86969          2143.36456          2375.13475           253.42108          2265.98715          3160.78863          2461.70838           385.18042          4842.04066           874.08879          2962.69562          4355.40520          1837.77160           717.68431          2545.85464          3342.83988          6073.19223          6261.45014          5078.26572           584.63418           645.44430          1085.47980          5315.05792          1094.67100          2645.40921           917.61968           700.025