# vtk DataFile Version 3.0
Output from R2
ASCII
DATASET UNSTRUCTURED_GRID
POINTS       1414 double
     0.00000  2968.10000   0.
     1.54000  2966.60000   0.
     3.08000  2964.90000   0.
     4.61000  2964.10000   0.
     6.15000  2963.30000   0.
     7.69000  2962.60000   0.
     9.23000  2961.50000   0.
    10.76000  2960.70000   0.
    12.30000  2960.00000   0.
    13.84000  2959.30000   0.
    15.38000  2958.70000   0.
    16.91000  2958.10000   0.
    18.45000  2957.30000   0.
    19.99000  2956.60000   0.
    21.52000  2955.80000   0.
    23.06000  2955.00000   0.
    24.60000  2954.30000   0.
    26.14000  2953.50000   0.
    27.68000  2952.80000   0.
    29.21000  2951.90000   0.
    30.75000  2951.10000   0.
    32.29000  2950.20000   0.
    33.83000  2949.50000   0.
    35.36000  2948.70000   0.
    36.90000  2948.10000   0.
    38.44000  2947.30000   0.
    39.98000  2946.70000   0.
    41.51000  2946.10000   0.
    43.05000  2945.50000   0.
    44.59000  2945.10000   0.
    46.13000  2944.50000   0.
    47.66000  2944.10000   0.
    49.20000  2943.60000   0.
    50.74000  2943.40000   0.
    52.28000  2943.00000   0.
    53.81000  2942.50000   0.
    55.35000  2942.10000   0.
    56.89000  2941.60000   0.
    58.43000  2941.00000   0.
    59.96000  2940.60000   0.
    61.50000  2940.10000   0.
    63.04000  2939.50000   0.
    64.58000  2939.10000   0.
    66.11000  2939.20000   0.
    67.65000  2939.20000   0.
    69.19000  2939.10000   0.
    70.73000  2938.90000   0.
    72.26000  2938.60000   0.
    73.80000  2938.30000   0.
    75.34000  2938.50000   0.
    76.88000  2938.70000   0.
    78.41000  2938.60000   0.
    79.95000  2938.80000   0.
    81.49000  2938.90000   0.
    83.03000  2939.10000   0.
    84.56000  2939.10000   0.
     3.42000  2957.55000   0.
     8.97000  2954.51000   0.
    14.52000  2951.86000   0.
    20.07000  2949.38000   0.
    25.63000  2946.59000   0.
    31.18000  2943.67000   0.
    36.73000  2940.99000   0.
    42.28000  2938.62000   0.
    47.83000  2936.87000   0.
    53.39000  2935.46000   0.
    58.94000  2933.69000   0.
    64.49000  2931.95000   0.
    70.04000  2931.81000   0.
    75.60000  2931.36000   0.
    81.15000  2931.70000   0.
     0.51333  2967.60000   0.
     1.02667  2967.10000   0.
     2.05333  2966.03333   0.
     2.56667  2965.46667   0.
     3.59000  2964.63333   0.
     4.10000  2964.36667   0.
     5.12333  2963.83333   0.
     5.63667  2963.56667   0.
     6.66333  2963.06667   0.
     7.17667  2962.83333   0.
     8.20333  2962.23333   0.
     8.71667  2961.86667   0.
     9.74000  2961.23333   0.
    10.25000  2960.96667   0.
    11.27333  2960.46667   0.
    11.78667  2960.23333   0.
    12.81333  2959.76667   0.
    13.32667  2959.53333   0.
    14.35333  2959.10000   0.
    14.86667  2958.90000   0.
    15.89000  2958.50000   0.
    16.40000  2958.30000   0.
    17.42333  2957.83333   0.
    17.93667  2957.56667   0.
    18.96333  2957.06667   0.
    19.47667  2956.83333   0.
    20.50000  2956.33333   0.
    21.01000  2956.06667   0.
    22.03333  2955.53333   0.
    22.54667  2955.26667   0.
    23.57333  2954.76667   0.
    24.08667  2954.53333   0.
    25.11333  2954.03333   0.
    25.62667  2953.76667   0.
    26.65333  2953.26667   0.
    27.16667  2953.03333   0.
    28.19000  2952.50000   0.
    28.70000  2952.20000   0.
    29.72333  2951.63333   0.
    30.23667  2951.36667   0.
    31.26333  2950.80000   0.
    31.77667  2950.50000   0.
    32.80333  2949.96667   0.
    33.31667  2949.73333   0.
    34.34000  2949.23333   0.
    34.85000  2948.96667   0.
    35.87333  2948.50000   0.
    36.38667  2948.30000   0.
    37.41333  2947.83333   0.
    37.92667  2947.56667   0.
    38.95333  2947.10000   0.
    39.46667  2946.90000   0.
    40.49000  2946.50000   0.
    41.00000  2946.30000   0.
    42.02333  2945.90000   0.
    42.53667  2945.70000   0.
    43.56333  2945.36667   0.
    44.07667  2945.23333   0.
    45.10333  2944.90000   0.
    45.61667  2944.70000   0.
    46.64000  2944.36667   0.
    47.15000  2944.23333   0.
    48.17333  2943.93333   0.
    48.68667  2943.76667   0.
    49.71333  2943.53333   0.
    50.22667  2943.46667   0.
    51.25333  2943.26667   0.
    51.76667  2943.13333   0.
    52.79000  2942.83333   0.
    53.30000  2942.66667   0.
    54.32333  2942.36667   0.
    54.83667  2942.23333   0.
    55.86333  2941.93333   0.
    56.37667  2941.76667   0.
    57.40333  2941.40000   0.
    57.91667  2941.20000   0.
    58.94000  2940.86667   0.
    59.45000  2940.73333   0.
    60.47333  2940.43333   0.
    60.98667  2940.26667   0.
    62.01333  2939.90000   0.
    62.52667  2939.70000   0.
    63.55333  2939.36667   0.
    64.06667  2939.23333   0.
    65.34500  2939.15000   0.
    66.88000  2939.20000   0.
    68.42000  2939.15000   0.
    69.70333  2939.03333   0.
    70.21667  2938.96667   0.
    71.24000  2938.80000   0.
    71.75000  2938.70000   0.
    72.77333  2938.50000   0.
    73.28667  2938.40000   0.
    74.31333  2938.36667   0.
    74.82667  2938.43333   0.
    75.85333  2938.56667   0.
    76.36667  2938.63333   0.
    77.64500  2938.65000   0.
    78.92333  2938.66667   0.
    79.43667  2938.73333   0.
    80.72000  2938.85000   0.
    82.00333  2938.96667   0.
    82.51667  2939.03333   0.
    83.79500  2939.10000   0.
     0.08400  2959.57200   0.
     1.19600  2958.89800   0.
     2.30800  2958.22400   0.
     4.53000  2956.94200   0.
     5.64000  2956.33400   0.
     6.75000  2955.72600   0.
     7.86000  2955.11800   0.
    10.35750  2953.84750   0.
    11.74500  2953.18500   0.
    13.13250  2952.52250   0.
    15.90750  2951.24000   0.
    17.29500  2950.62000   0.
    18.68250  2950.00000   0.
    21.18200  2948.82200   0.
    22.29400  2948.26400   0.
    23.40600  2947.70600   0.
    24.51800  2947.14800   0.
    26.74000  2946.00600   0.
    27.85000  2945.42200   0.
    28.96000  2944.83800   0.
    30.07000  2944.25400   0.
    32.56750  2943.00000   0.
    33.95500  2942.33000   0.
    35.34250  2941.66000   0.
    38.11750  2940.39750   0.
    39.50500  2939.80500   0.
    40.89250  2939.21250   0.
    43.66750  2938.18250   0.
    45.05500  2937.74500   0.
    46.44250  2937.30750   0.
    49.22000  2936.51750   0.
    50.61000  2936.16500   0.
    52.00000  2935.81250   0.
    54.77750  2935.01750   0.
    56.16500  2934.57500   0.
    57.55250  2934.13250   0.
    60.32750  2933.25500   0.
    61.71500  2932.82000   0.
    63.10250  2932.38500   0.
    65.87750  2931.91500   0.
    67.26500  2931.88000   0.
    68.65250  2931.84500   0.
    71.43000  2931.69750   0.
    72.82000  2931.58500   0.
    74.21000  2931.47250   0.
    76.98750  2931.44500   0.
    78.37500  2931.53000   0.
    79.76250  2931.61500   0.
    82.53750  2931.75500   0.
    83.92500  2931.81000   0.
     6.60134  2937.05984   0.
    20.80435  2932.52560   0.
     3.78758  2946.36592   0.
    15.48523  2940.98228   0.
    29.30091  2934.50364   0.
    23.90594  2939.46561   0.
    40.87322  2931.62711   0.
     1.03219  2951.87344   0.
    10.83406  2946.32292   0.
    20.42668  2943.42459   0.
    48.80952  2930.83467   0.
    35.50309  2935.49258   0.
     7.54365  2949.73854   0.
    28.57967  2939.84283   0.
    15.90963  2945.83181   0.
    44.30452  2933.27820   0.
    -0.12722  2955.42655   0.
    24.47411  2943.04615   0.
     4.45051  2952.86019   0.
    40.01017  2935.22543   0.
    52.75593  2931.58993   0.
    13.75183  2934.27842   0.
    32.31862  2938.44653   0.
     0.40990  2931.04902   0.
    19.20708  2946.27332   0.
    57.19103  2930.55709   0.
    -0.97178  2947.27328   0.
    19.39705  2939.49643   0.
    11.08068  2950.12444   0.
    32.86215  2930.47012   0.
     7.41320  2941.82707   0.
    13.76382  2948.77946   0.
    27.17579  2942.79365   0.
     7.27112  2952.68663   0.
     2.71547  2954.94653   0.
    22.91159  2945.17994   0.
     2.00816  2941.86911   0.
    24.73355  2934.79062   0.
    47.86753  2934.00196   0.
    50.62083  2933.29089   0.
    60.15732  2930.28185   0.
    37.65425  2937.53830   0.
    44.64836  2929.77041   0.
    10.93416  2939.02064   0.
     4.26476  2949.76242   0.
    36.78915  2931.78219   0.
     7.36345  2946.13476   0.
    30.92470  2941.06806   0.
     6.19921  2931.10091   0.
    35.16618  2938.51604   0.
    16.36294  2929.87801   0.
    13.43632  2943.77014   0.
    42.64967  2935.50406   0.
    26.89596  2931.23775   0.
     1.59760  2936.73753   0.
    17.19200  2948.13905   0.
    -0.61497  2957.60981   0.
    26.49360  2937.36117   0.
     9.56799  2951.50953   0.
    17.55858  2943.77119   0.
    55.26825  2932.33039   0.
    22.03247  2936.46128   0.
    16.10828  2937.24515   0.
    22.48452  2941.40733   0.
    20.86327  2946.43955   0.
    29.71126  2937.35408   0.
    32.14062  2935.59882   0.
    45.26358  2935.44707   0.
    29.19256  2942.39482   0.
    25.22337  2944.48902   0.
    25.77440  2940.40763   0.
     5.12787  2951.33100   0.
     9.72036  2943.07255   0.
     0.63027  2944.64860   0.
     5.15669  2954.13690   0.
    33.80274  2940.56791   0.
     1.57076  2956.41210   0.
     9.31000  2947.97928   0.
     9.87726  2933.53233   0.
    53.60824  2932.85261   0.
    40.63972  2936.89193   0.
    13.47285  2946.23828   0.
    37.68088  2934.75035   0.
    46.32767  2931.88185   0.
    18.64740  2941.16071   0.
    13.09413  2950.32980   0.
    18.01744  2935.92389   0.
     0.55332  2948.73049   0.
     5.35766  2947.55011   0.
    42.44669  2933.52960   0.
    57.75733  2932.24094   0.
    23.68300  2931.83870   0.
    19.94397  2947.74183   0.
    61.81887  2931.15328   0.
[...]
POINT_DATA      1414
CELL_DATA      2568
SCALARS Resistivity(ohm.m) double 1
LOOKUP_TABLE default
          1107.95527          1763.21221          2320.06508          1055.31963           506.73086          2252.70525          1332.70020          1543.13896          1707.42844          2125.64457           761.87237          2103.01516           562.64987          2302.44383          2282.24420          1963.20077          1599.25156           485.53502           439.64284          2316.95547          1239.02764          1972.56599          1257.07323           561.95962          1880.26914           496.76667           306.93526          2218.62978          2264.42927          2327.97659           458.05170           513.99708          1680.56697           412.92240           418.33815          1718.23978           725.03253           889.70535          1207.50932          1586.86300          1878.71600           671.55150           437.33105          2355.39113           356.62533           438.37189          2906.06118           807.55576           585.78636           950.32179          2493.13084          1879.80072          1001.00059          1608.30547          2279.22822           842.76518           391.73060          2290.93563           419.09766          1069.99906           514.35978          2141.55129           489.30093          1916.63810           309.17734          1613.09202          2126.52709          2059.95462           330.54457           651.27621           487.88370           787.71306          2086.27297           420.53447           375.18815          3006.69203          1426.53070           468.47626           377.72987          2720.46787          2555.36479          1481.80743           404.02565           442.24072          2062.15190           711.24197           366.99985          2155.57093           880.60965          1926.48036           997.64140           371.44964          2277.72487           414.65429          1814.35697          2026.62208           531.29139          1206.49780          2195.00159           939.85167          1558.45583           508.67502           580.85938           695.57206          1003.29822          1737.46944           490.74929           921.79487          2171.33459          1295.63797           448.32039          1149.46248          2578.77065          1832.85724          2072.63904          1330.00221          1062.68049          1526.15951           421.52139           356.75907          2279.19840          1388.82976          3015.19687           680.89056           508.10359          2073.21680          2465.12248          3267.07782          1869.10268          1464.30927          2086.45408          1041.03288          1221.44374          2247.71479           791.48599          2921.92059           438.05822          1696.46817           937.14538          1389.42754          1612.12336           488.87120           561.54516          1376.89692          1671.91988           526.35120           427.98232          1476.79116          1952.93975           501.33761          2338.86442          1940.05276           893.76689           674.19644          2261.81799           344.06942          1654.10603           418.48420          2258.74986          1276.68653          1159.10542           480.21930          2392.52600           457.73047          2257.78576           526.64646          1481.00222          1870.38559          1973.41706          1743.92551           700.70434           729.10326           632.56093           319.27403           391.12458           934.94481           726.74347          3654.24761          2731.88140          1094.39891          2242.75698          1440.44052          2010.95584           673.69562           514.78421           888.62495           779.07776           585.62946           864.80794          2470.36119          1196.50576          2393.60299           535.74261          2601.22334           313.35419           464.56257          2523.19134          2109.55918          1201.46498           397.69463           339.76468           824.04635          1828.26427          1453.79308          1859.75009           977.55609          3977.46018          2326.04332           382.37652          2301.87947          1304.62407           554.20658           397.17080           380.56959           524.04548          1150.53401          2358.24937           490.97973          1213.32487           477.67959           881.16230          1314.79206          1061.75161           396.45880           594.65345           579.42459           421.15294           497.93911          1311.31935           347.96954          1060.21845          2088.46069          1406.37380          3056.06206          2315.96591          1696.77829          2352.97144          1449.23172          1391.75629          1358.66454          2575.59133           614.65219           876.93789           414.87160          2414.44944           322.52527          1883.02931           465.40696           485.03737          2189.56561           311.57645          2089.63813          1754.64406           608.66342          2012.69513           924.57724           598.20324           641.69629           649.35373          2996.49436           541.33040          2257.19139           490.57922           423.46076           421.80347          1661.53390           398.42118          2281.81716           816.05323          2344.98127           998.72792          2172.53929          2486.40217          2210.00052           466.38840          1627.96246          2281.69793           476.57991           681.12089           621.50607           490.58707          1400.91610           332.82579           879.12486           897.96542          2306.62571           435.24854          2334.46131           583.24883           482.35689           941.20109           365.42605          2272.71155           593.45281          1956.21505          2259.39196          1429.81878           490.57904           437.62890           575.16026          1027.04683           415.83478          2408.35995          2560.02006           407.23374          1854.01302          1308.29974          1533.99642          1985.68834           427.81097           614.12848           547.92894           326.76510          2273.05950           766.42537           392.92656           482.62775          1163.38309          2863.42228           469.84157          3381.64419           385.29125           916.93507           468.79702           488.66147          1175.21050           438.46127          1415.31935           976.52211          2884.54788          1786.62932          2190.05752           476.63226          1593.19252           356.31616           381.61545           530.10000           557.13012          3247.35716           511.74855          2145.07998           463.77846          2135.82546           446.90109           525.04277          1826.59815          1168.93067          1080.87063           436.91076          2173.25208           481.40764          2458.84493           694.48726           438.70443           427.57445          2080.61451           463.85755          1594.80286           340.21444           382.25737           818.26957          1543.27788           874.92233           493.26720          1351.80784           478.91510           421.02234          2283.65013          1799.79408          2731.61423           478.02195          1306.02135          1406.90585          1019.05557           326.70237          2664.30901           388.81899           493.02301           430.17381          2030.68806          1354.54115           481.28260          1820.87937          2344.93747           318.65565          1350.51220           534.67526          1362.76691           410.62305          1518.52222           632.29441           347.20711          1443.18911          1403.64568           462.58722           791.60167           529.35606          1378.07534          1752.30256          1007.29952           532.60712           569.60654          1333.74836          1483.50153          1296.52220           786.22266           498.89727           855.10562          2259.87502          1663.16296          1509.40496          2174.05239          1008.71374           581.20049          1151.64799          2388.21784           650.10700           833.18764           659.96647          1770.64225           970.50435           371.93640          2183.12607          1423.65089          1262.71582           318.03829          1678.04134           535.89107          1402.12051           475.49125          1316.29421           479.58708           465.63234          1965.04382           999.45782          1471.02651          1503.66871           607.08400          1924.22312          1329.36156          3637.11667           544.43651          1144.93921          2084.87414          1105.72381          1056.80092          1298.02792          1182.40058          4315.58401           763.83864          3378.04357          1574.29303          1528.16171          1236.66617          1733.52263           767.46599          2176.44640           828.97991          1362.55233           451.92892          1903.74428          1318.52572           790.64518          1346.62146          2210.10260           753.40794           850.83759          1195.52708          1761.20644          1676.20787           829.27236          1825.92948           828.19362           322.29773          1932.39895          4013.57701          1053.30017           406.42348          1532.83164           678.91248          1086.86656          1982.84390           462.94754           510.41654          2172.96298          2656.06299          1272.21849           421.66429           660.51237           726.39151          1266.77182          1146.28090          1003.57420          1548.58132           714.86172          1496.05797           688.92665          1019.55138          2616.60345          1814.39338           631.72640           386.84466           552.98201          1260.19407           704.20443          1201.14513          3778.51284          1241.38122           361.59002           442.12087          1277.35230          1177.80650           836.35193           397.70162          3278.49260          1429.85255           369.89874          3428.80173          2238.24653           448.67570          1391.54710          1229.43322          1021.23168          1193.40372          1028.98091           502.17233          1632.71364          1462.55309          1480.44087          1321.24498           624.59440          1789.76082           492.18811          1241.99151           532.31289           458.87903           648.07590          1737.68451          1069.78239           841.29841           481.68643           394.07277          1716.94176          1117.17575          4163.64006          5289.79431          3318.59529          2029.54335          1904.75093          2239.80571          3563.97412          5519.66628           650.18847          4596.68967           409.32907          1056.03808          1379.26328           522.47623          3949.06735          5680.10921          1257.46550           427.59482          1821.67767          2501.44650           737.79034           749.05659          1382.82034          4461.37810          1117.76150          2505.51211          1096.64029           487.86109          1525.86461          1480.51574           402.92643          3287.91908           509.77013          1269.59913          5789.53142          3931.55963          1648.85209          6250.75657           340.89249           798.71970           469.91623          1755.59184          2592.44593          1694.71685          2759.02776          1601.94160          2418.59423           811.26322          1429.03304          1330.77594          1705.24203         10192.47354          3497.45642           905.97473          4938.67446          4086.21627           819.57700           666.27554          5623.55760          2545.53318          4415.58443          5654.61645          1348.62314           776.53820           667.67217           446.66231           773.08668          4374.88955          1584.70719           972.35026          1620.93349           376.21495          1108.26739          1669.76025          3982.54665           851.20995           875.31441           655.79099           724.05046          1536.49674          1318.08715           701.74261          2984.25540          2929.38757          3240.84264          3010.90707          5919.57421          4490.93275          2290.45183           517.43286          4684.65476          1086.08365          1562.38324           662.69767          1338.89409           854.79259           376.58271          7023.03908          5064.60726          1462.66516          1403.20970          2613.69003          2112.50261          2979.63257          3055.78642           844.81385          1056.81563           548.19497           892.52801           365.91746           522.88895           854.71175           514.41458          1801.12667          4736.11271          3251.34805          1470.56524          2169.25785          1311.45843          1478.06403          8076.05965          5233.30255          1765.64605           386.70318           599.54581          5965.81894           642.80528          3884.11066          4440.93894          1072.92979          2335.33082           598.36564          1008.71661          1086.29869          2211.70471          2255.53611          2485.12896           548.50953           447.57669          1239.47778           395.25266           593.77159           395.47725          3295.07926          4577.30166           423.85136          2722.95312           761.23370          2401.68304          1322.39513           711.87370           597.20168           661.26174           559.34824          1793.33814           682.57152          1359.41129           642.81247          2571.67655          1789.46544          3716.54977          2835.88307           563.03180           564.87670           375.87714          2809.58214           689.51398           627.52062          1135.70391          2453.99799           820.93230           769.66567           530.01675          1119.80641          1028.76846          1401.98683          1366.50220           538.69339           777.92055           743.52909          2479.43426          1968.70311          1183.80275          7897.79311          1061.89467           727.32635           816.58663          1243.44752          2259.97452          1553.77459          1581.07438          1362.92979          2550.90890           877.69026          7306.42980          1334.37659          2557.41468           691.81721          1243.41262          3844.38414          3150.46982           704.64952           975.90596          3106.14312           466.99625           542.48577          1208.61448          2890.22096          5888.70569          1449.15448          7158.40862          1105.13900          1566.51088          1497.03627          1290.62563           455.54527           785.71348          2531.78563           661.38869          3676.81508           539.32599          2954.24521           841.00325           559.08857          1315.43599          1971.02095          2671.52685          4936.07573          2490.57984          1549.91810          1683.97898          1306.69235          6063.81075          7366.64425          1906.23330           886.63611          2607.14860           542.31050          1204.34037           802.71887          2304.14331          1234.17107          1031.25791           572.90578           541.50486          3653.26288           855.72493           704.73597          6223.34433          3674.55468          2361.83147          1223.84606          8614.14543           763.98168          2273.24021          2787.33390          2014.12154           938.11973          2862.84884          5411.18297          1569.35494           408.07742           713.37311           793.30359          1602.46526          1671.08363           579.22111           680.65510          6829.16737           740.45164          1105.95753          1877.70318          3815.38534          5440.96068           395.86165          1232.94561           824.94476           988.15101          1692.20287           683.86597           747.00748          1408.63446           881.06037           516.08470           358.02291           801.38706          2796.53584           477.08003          2831.41246          1533.68285          2143.28593          1308.60151          1692.27288          1553.45564           372.46378          3418.49608          1330.89395          1810.31727          1698.41128          2066.20675          5542.20200          1030.43847          5517.79443           601.03455           705.02194          1457.75331          1257.73145          7559.21034          2515.00099           783.24488          1670.76510          3887.82004          3350.50634           651.42004          4438.19565          1340.81447          2732.34729          1079.60257          3665.71966          3714.93923           497.47526          3654.19664          4270.35816          2306.06367          5193.52704           810.12760           787.58221          1243.65800          2332.51936           432.91333          7177.02061          4403.66204           673.30192          1615.60228          1496.56337          1954.05708           780.01051          1216.03757         11377.54608           669.76988          2286.31797          1216.38485           462.77219           721.95752          2286.81896          4610.63651          6100.64754          1529.86710          2807.27576          2478.27104          4725.95284           787.15531          1271.90211          1873.31794          1628.00836          5240.91584           550.15255          1240.83367          2653.78472           772.95812          3730.69220          2108.15758          6926.11270          1886.63361          1101.02538          1193.20475           552.63609          4940.15734          7382.67033          1877.35887           343.47657           363.54674           725.85160           755.35707          6443.86583          1438.04956          2117.45433          2872.39505          2864.67214          5708.20328          5591.15538           387.85249           649.54879           730.34778          1230.32751           598.98856          4900.34438          3795.77972          1215.82310           727.42607          1050.77006          2314.08866          3683.81515          2255.60621          1857.91492           738.38400          4176.85815          6788.17844           459.60197           670.99562          1662.27474          7724.70827          1708.79985          3191.02569          5668.02001           758.05564          1624.80262          4456.39872           616.28606          1474.54963           997.88181          4755.98991           802.77098          1743.46965          3113.38528          5542.74290          4540.17794          6168.21659          4887.81274          4237.51905          1745.27623           797.58151          3592.09806          8258.86651           524.91550          2309.45897          2438.54650           328.14174          2395.50079          3100.53121          2307.98290           479.67335          4309.52083           792.69143          3215.13230          3744.21905          1752.86141           718.53786          2864.09453          3400.00363          5815.45617          6237.26836          5584.84451           657.27664           564.15833          1092.88208          5080.10696          1045.40381          2570.98792           713.76370           697.500