# vtk DataFile Version 3.0
Output from R2
ASCII
DATASET UNSTRUCTURED_GRID
POINTS       1414 double
     0.00000  2968.10000   0.
     1.54000  2966.60000   0.
     3.08000  2964.90000   0.
     4.61000  2964.10000   0.
     6.15000  2963.30000   0.
     7.69000  2962.60000   0.
     9.23000  2961.50000   0.
    10.76000  2960.70000   0.
    12.30000  2960.00000   0.
    13.84000  2959.30000   0.
    15.38000  2958.70000   0.
    16.91000  2958.10000   0.
    18.45000  2957.30000   0.
    19.99000  2956.60000   0.
    21.52000  2955.80000   0.
    23.06000  2955.00000   0.
    24.60000  2954.30000   0.
    26.14000  2953.50000   0.
    27.68000  2952.80000   0.
    29.21000  2951.90000   0.
    30.75000  2951.10000   0.
    32.29000  2950.20000   0.
    33.83000  2949.50000   0.
    35.36000  2948.70000   0.
    36.90000  2948.10000   0.
    38.44000  2947.30000   0.
    39.98000  2946.70000   0.
    41.51000  2946.10000   0.
    43.05000  2945.50000   0.
    44.59000  2945.10000   0.
    46.13000  2944.50000   0.
    47.66000  2944.10000   0.
    49.20000  2943.60000   0.
    50.74000  2943.40000   0.
    52.28000  2943.00000   0.
    53.81000  2942.50000   0.
    55.35000  2942.10000   0.
    56.89000  2941.60000   0.
    58.43000  2941.00000   0.
    59.96000  2940.60000   0.
    61.50000  2940.10000   0.
    63.04000  2939.50000   0.
    64.58000  2939.10000   0.
    66.11000  2939.20000   0.
    67.65000  2939.20000   0.
    69.19000  2939.10000   0.
    70.73000  2938.90000   0.
    72.26000  2938.60000   0.
    73.80000  2938.30000   0.
    75.34000  2938.50000   0.
    76.88000  2938.70000   0.
    78.41000  2938.60000   0.
    79.95000  2938.80000   0.
    81.49000  2938.90000   0.
    83.03000  2939.10000   0.
    84.56000  2939.10000   0.
     3.42000  2957.55000   0.
     8.97000  2954.51000   0.
    14.52000  2951.86000   0.
    20.07000  2949.38000   0.
    25.63000  2946.59000   0.
    31.18000  2943.67000   0.
    36.73000  2940.99000   0.
    42.28000  2938.62000   0.
    47.83000  2936.87000   0.
    53.39000  2935.46000   0.
    58.94000  2933.69000   0.
    64.49000  2931.95000   0.
    70.04000  2931.81000   0.
    75.60000  2931.36000   0.
    81.15000  2931.70000   0.
     0.51333  2967.60000   0.
     1.02667  2967.10000   0.
     2.05333  2966.03333   0.
     2.56667  2965.46667   0.
     3.59000  2964.63333   0.
     4.10000  2964.36667   0.
     5.12333  2963.83333   0.
     5.63667  2963.56667   0.
     6.66333  2963.06667   0.
     7.17667  2962.83333   0.
     8.20333  2962.23333   0.
     8.71667  2961.86667   0.
     9.74000  2961.23333   0.
    10.25000  2960.96667   0.
    11.27333  2960.46667   0.
    11.78667  2960.23333   0.
    12.81333  2959.76667   0.
    13.32667  2959.53333   0.
    14.35333  2959.10000   0.
    14.86667  2958.90000   0.
    15.89000  2958.50000   0.
    16.40000  2958.30000   0.
    17.42333  2957.83333   0.
    17.93667  2957.56667   0.
    18.96333  2957.06667   0.
    19.47667  2956.83333   0.
    20.50000  2956.33333   0.
    21.01000  2956.06667   0.
    22.03333  2955.53333   0.
    22.54667  2955.26667   0.
    23.57333  2954.76667   0.
    24.08667  2954.53333   0.
    25.11333  2954.03333   0.
    25.62667  2953.76667   0.
    26.65333  2953.26667   0.
    27.16667  2953.03333   0.
    28.19000  2952.50000   0.
    28.70000  2952.20000   0.
    29.72333  2951.63333   0.
    30.23667  2951.36667   0.
    31.26333  2950.80000   0.
    31.77667  2950.50000   0.
    32.80333  2949.96667   0.
    33.31667  2949.73333   0.
    34.34000  2949.23333   0.
    34.85000  2948.96667   0.
    35.87333  2948.50000   0.
    36.38667  2948.30000   0.
    37.41333  2947.83333   0.
    37.92667  2947.56667   0.
    38.95333  2947.10000   0.
    39.46667  2946.90000   0.
    40.49000  2946.50000   0.
    41.00000  2946.30000   0.
    42.02333  2945.90000   0.
    42.53667  2945.70000   0.
    43.56333  2945.36667   0.
    44.07667  2945.23333   0.
    45.10333  2944.90000   0.
    45.61667  2944.70000   0.
    46.64000  2944.36667   0.
    47.15000  2944.23333   0.
    48.17333  2943.93333   0.
    48.68667  2943.76667   0.
    49.71333  2943.53333   0.
    50.22667  2943.46667   0.
    51.25333  2943.26667   0.
    51.76667  2943.13333   0.
    52.79000  2942.83333   0.
    53.30000  2942.66667   0.
    54.32333  2942.36667   0.
    54.83667  2942.23333   0.
    55.86333  2941.93333   0.
    56.37667  2941.76667   0.
    57.40333  2941.40000   0.
    57.91667  2941.20000   0.
    58.94000  2940.86667   0.
    59.45000  2940.73333   0.
    60.47333  2940.43333   0.
    60.98667  2940.26667   0.
    62.01333  2939.90000   0.
    62.52667  2939.70000   0.
    63.55333  2939.36667   0.
    64.06667  2939.23333   0.
    65.34500  2939.15000   0.
    66.88000  2939.20000   0.
    68.42000  2939.15000   0.
    69.70333  2939.03333   0.
    70.21667  2938.96667   0.
    71.24000  2938.80000   0.
    71.75000  2938.70000   0.
    72.77333  2938.50000   0.
    73.28667  2938.40000   0.
    74.31333  2938.36667   0.
    74.82667  2938.43333   0.
    75.85333  2938.56667   0.
    76.36667  2938.63333   0.
    77.64500  2938.65000   0.
    78.92333  2938.66667   0.
    79.43667  2938.73333   0.
    80.72000  2938.85000   0.
    82.00333  2938.96667   0.
    82.51667  2939.03333   0.
    83.79500  2939.10000   0.
     0.08400  2959.57200   0.
     1.19600  2958.89800   0.
     2.30800  2958.22400   0.
     4.53000  2956.94200   0.
     5.64000  2956.33400   0.
     6.75000  2955.72600   0.
     7.86000  2955.11800   0.
    10.35750  2953.84750   0.
    11.74500  2953.18500   0.
    13.13250  2952.52250   0.
    15.90750  2951.24000   0.
    17.29500  2950.62000   0.
    18.68250  2950.00000   0.
    21.18200  2948.82200   0.
    22.29400  2948.26400   0.
    23.40600  2947.70600   0.
    24.51800  2947.14800   0.
    26.74000  2946.00600   0.
    27.85000  2945.42200   0.
    28.96000  2944.83800   0.
    30.07000  2944.25400   0.
    32.56750  2943.00000   0.
    33.95500  2942.33000   0.
    35.34250  2941.66000   0.
    38.11750  2940.39750   0.
    39.50500  2939.80500   0.
    40.89250  2939.21250   0.
    43.66750  2938.18250   0.
    45.05500  2937.74500   0.
    46.44250  2937.30750   0.
    49.22000  2936.51750   0.
    50.61000  2936.16500   0.
    52.00000  2935.81250   0.
    54.77750  2935.01750   0.
    56.16500  2934.57500   0.
    57.55250  2934.13250   0.
    60.32750  2933.25500   0.
    61.71500  2932.82000   0.
    63.10250  2932.38500   0.
    65.87750  2931.91500   0.
    67.26500  2931.88000   0.
    68.65250  2931.84500   0.
    71.43000  2931.69750   0.
    72.82000  2931.58500   0.
    74.21000  2931.47250   0.
    76.98750  2931.44500   0.
    78.37500  2931.53000   0.
    79.76250  2931.61500   0.
    82.53750  2931.75500   0.
    83.92500  2931.81000   0.
     6.60134  2937.05984   0.
    20.80435  2932.52560   0.
     3.78758  2946.36592   0.
    15.48523  2940.98228   0.
    29.30091  2934.50364   0.
    23.90594  2939.46561   0.
    40.87322  2931.62711   0.
     1.03219  2951.87344   0.
    10.83406  2946.32292   0.
    20.42668  2943.42459   0.
    48.80952  2930.83467   0.
    35.50309  2935.49258   0.
     7.54365  2949.73854   0.
    28.57967  2939.84283   0.
    15.90963  2945.83181   0.
    44.30452  2933.27820   0.
    -0.12722  2955.42655   0.
    24.47411  2943.04615   0.
     4.45051  2952.86019   0.
    40.01017  2935.22543   0.
    52.75593  2931.58993   0.
    13.75183  2934.27842   0.
    32.31862  2938.44653   0.
     0.40990  2931.04902   0.
    19.20708  2946.27332   0.
    57.19103  2930.55709   0.
    -0.97178  2947.27328   0.
    19.39705  2939.49643   0.
    11.08068  2950.12444   0.
    32.86215  2930.47012   0.
     7.41320  2941.82707   0.
    13.76382  2948.77946   0.
    27.17579  2942.79365   0.
     7.27112  2952.68663   0.
     2.71547  2954.94653   0.
    22.91159  2945.17994   0.
     2.00816  2941.86911   0.
    24.73355  2934.79062   0.
    47.86753  2934.00196   0.
    50.62083  2933.29089   0.
    60.15732  2930.28185   0.
    37.65425  2937.53830   0.
    44.64836  2929.77041   0.
    10.93416  2939.02064   0.
     4.26476  2949.76242   0.
    36.78915  2931.78219   0.
     7.36345  2946.13476   0.
    30.92470  2941.06806   0.
     6.19921  2931.10091   0.
    35.16618  2938.51604   0.
    16.36294  2929.87801   0.
    13.43632  2943.77014   0.
    42.64967  2935.50406   0.
    26.89596  2931.23775   0.
     1.59760  2936.73753   0.
    17.19200  2948.13905   0.
    -0.61497  2957.60981   0.
    26.49360  2937.36117   0.
     9.56799  2951.50953   0.
    17.55858  2943.77119   0.
    55.26825  2932.33039   0.
    22.03247  2936.46128   0.
    16.10828  2937.24515   0.
    22.48452  2941.40733   0.
    20.86327  2946.43955   0.
    29.71126  2937.35408   0.
    32.14062  2935.59882   0.
    45.26358  2935.44707   0.
    29.19256  2942.39482   0.
    25.22337  2944.48902   0.
    25.77440  2940.40763   0.
     5.12787  2951.33100   0.
     9.72036  2943.07255   0.
     0.63027  2944.64860   0.
     5.15669  2954.13690   0.
    33.80274  2940.56791   0.
     1.57076  2956.41210   0.
     9.31000  2947.97928   0.
     9.87726  2933.53233   0.
    53.60824  2932.85261   0.
    40.63972  2936.89193   0.
    13.47285  2946.23828   0.
    37.68088  2934.75035   0.
    46.32767  2931.88185   0.
    18.64740  2941.16071   0.
    13.09413  2950.32980   0.
    18.01744  2935.92389   0.
     0.55332  2948.73049   0.
     5.35766  2947.55011   0.
    42.44669  2933.52960   0.
    57.75733  2932.24094   0.
    23.68300  2931.83870   0.
    19.94397  2947.74183   0.
    61.81887  2931.15328   0.
[...]
POINT_DATA      1414
CELL_DATA      2568
SCALARS Resistivity(ohm.m) double 1
LOOKUP_TABLE default
          1057.88648          1612.04498          2376.03837          1020.44502           517.83402          2210.76141          1303.79466          1482.67593          1585.20438          2040.46125           794.22715          2033.16049           619.37334          2297.99152          2270.27459          1907.78938          1457.50144           444.81632           446.69619          2290.03558          1225.98905          1871.80540          1157.15148           637.46441          1748.37719           533.20142           298.21995          2155.16745          2231.92234          2375.45301           467.17439           538.69884          1530.50970           399.07801           406.34218          1697.63937           759.89668           903.74362          1120.17561          1558.13643          1769.19738           716.03959           456.13029          2360.00425           365.70002           424.80518          3028.29282           832.98152           640.89061           968.30949          2538.65724          1755.42532           987.63771          1471.64097          2437.56070           866.47382           394.79464          2289.68222           420.23071          1040.12605           541.72795          2077.08922           444.33395          1825.01249           306.83677          1491.61747          2029.70582          1946.56697           330.33122           684.63285           503.35508           816.01720          2011.68988           427.27784           346.34824          3123.63931          1300.71046           434.41521           347.59344          2822.68890          2624.15792          1413.49252           413.25446           434.28905          1972.47912           745.09505           371.23309          2095.87097           900.73809          1787.54285           984.30736           384.18635          2259.62159           379.20085          1826.81905          1933.33164           504.05252          1143.15496          2152.42204           941.35911          1412.34571           535.73949           620.39541           738.42131           980.28431          1611.16462           496.71150           925.10474          2271.61472          1212.88713           410.10104          1131.55140          2635.42320          1686.19515          1994.97757          1230.33800          1055.60990          1386.20131           438.98166           356.81284          2243.85940          1266.06526          3145.15022           725.04271           480.57471          1964.97686          2492.24392          3399.44058          1742.54893          1416.18251          1975.27808          1008.66855          1133.10795          2219.32893           821.22395          3022.33177           398.64705          1562.46731           939.52504          1281.43213          1462.45884           503.76253           597.10224          1334.30928          1525.49878           558.22720           427.15487          1339.15112          1827.56845           582.69750          2418.58273          1829.92564           903.75186           715.50039          2224.24182           320.12973          1566.85540           399.37723          2232.48237          1176.02665          1110.30891           493.25486          2383.92215           440.01038          2228.15866           562.08193          1443.76176          1843.00917          1877.04705          1601.60467           740.00580           768.32866           674.46036           314.15270           403.45665           936.92726           762.33127          3775.19652          2806.59194          1056.19022          2192.78760          1357.81951          1884.37280           716.84345           546.88778           902.71732           811.58366           622.31494           878.11710          2519.98015          1112.95337          2420.60691           563.78764          2684.33924           312.10212           484.23929          2587.20967          2006.73233          1123.50446           413.12712           314.95819           845.84052          1688.75440          1323.03324          1807.33272           967.39577          4083.08304          2449.75575           398.28618          2339.04551          1194.72941           593.46409           409.87640           376.18405           623.25513          1085.69552          2370.36977           497.93370          1135.66281           494.42252           896.39491          1223.26442          1031.09428           385.00962           643.53570           610.39138           387.24873           521.78229          1218.41241           361.93701          1041.56946          2122.73814          1278.56020          3159.68122          2299.54576          1591.14369          2355.98448          1355.03523          1285.14408          1238.44363          2651.41597           666.28220           893.53983           427.25711          2447.66482           304.64869          1736.68559           457.54426           440.41646          2126.62060           295.94785          2077.02016          1631.47794           644.64932          1888.86899           928.70911           651.60588           680.17578           696.58036          3088.22059           593.26111          2236.62951           456.65474           440.69966           418.72974          1538.41111           396.25312          2272.95199           843.18203          2491.28056           988.19490          2159.54717          2505.12089          2144.17851           462.22945          1477.41111          2331.79061           458.82205           720.25924           671.22457           465.86540          1282.45927           318.72734           893.62662           905.44973          2329.21192           451.91082          2320.40957           634.76305           448.27760           944.18839           345.95502          2250.48001           623.11618          1824.72151          2216.92526          1310.46700           509.93394           453.15377           609.32188          1032.35995           417.65526          2426.62490          2623.95167           391.09537          1734.79172          1198.98256          1391.15880          1890.45855           391.49249           648.32171           602.36588           331.19871          2245.60006           796.21738           375.16993           473.45103          1126.20429          2938.98537           471.36359          3504.92066           404.60377           898.86756           435.36671           509.56128          1096.87141           428.44251          1299.20845           965.39366          2999.40512          1635.03263          2113.36352           497.68532          1466.50557           372.75137           396.78628           557.88136           600.86414          3373.58902           606.92017          2069.56065           420.83275          2039.09849           429.43592           554.29963          1699.44477          1111.93036          1056.47048           425.51359          2094.71212           440.33809          2501.76618           732.87825           409.77329           440.48669          1982.39448           468.14888          1458.64337           349.52877           397.97826           840.25070          1413.73057           887.35140           513.26095          1235.75754           495.26577           399.03710          2252.61784          1668.27947          2795.19167           448.92456          1202.05748          1278.86337          1011.08038           333.71214          2751.32295           405.15661           487.65178           409.00891          1924.31219          1234.19830           435.58712          1701.73997          2350.35497           298.53443          1237.33119           576.58940          1277.19001           419.68834          1403.10275           662.75577           361.33996          1317.47079          1373.76028           424.30213           818.04163           551.67695          1319.37949          1616.37330           992.93923           578.76235           596.01864          1221.12979          1370.11388          1193.97465           818.91727           558.63759           877.11989          2221.58339          1515.18229          1378.20217          2116.95598           995.22840           637.98344          1142.65044          2391.25695           694.81726           822.46916           707.53370          1630.35271           963.82459           387.52159          2116.14292          1317.77390          1174.05922           321.50826          1620.14600           582.95695          1276.32654           452.64115          1213.20520           448.74282           424.17053          2006.91271           985.79444          1333.51788          1368.52078           659.68045          1815.23271          1282.23472          3756.99299           635.70725          1078.22463          2187.04986          1049.93095          1029.61273          1200.25430          1103.98302          4411.46169           799.05322          3508.02271          1430.09220          1446.91607          1199.54313          1664.96996           801.76255          2127.56607           855.46282          1270.21130           422.86722          1763.03912          1206.68158           822.63737          1278.53001          2146.82362           790.04502           866.79897          1148.61784          1723.89353          1533.05145           856.49848          1680.14558           852.45290           325.44257          1793.24098          4121.41062          1030.48601           419.81184          1423.53589           724.70619          1091.16165          1998.28657           480.70892           491.11262          2094.76747          2744.63087          1210.85238           390.20868           701.78992           766.42882          1166.15659          1105.57446           982.88377          1424.16599           753.54272          1376.10390           729.52997          1000.36485          2654.75222          1672.48996           681.42056           360.12474           605.17111          1176.81739           744.80250          1132.05696          3892.45695          1151.16705           376.74822           454.65584          1210.49830          1111.90741           858.02980           413.54158          3393.92998          1322.14305           384.66140          3542.29601          2195.21400           422.03161          1274.46867          1139.25772           998.56014          1140.80238          1005.51802           525.52262          1518.50325          1341.66066          1354.65346          1263.36570           663.74393          1680.84945           451.40792          1197.33891           556.46209           428.04991           689.05373          1587.11225          1035.07134           865.09291           445.90255           408.02870          1563.79483          1067.04203          4012.11558          5005.97684          3188.04170          1952.56616          1929.95350          2409.30101          3816.37417          5467.86427           678.76611          4641.29960           392.80729          1014.60906          1315.43350           619.90947          4363.63946          5220.66706          1208.89278           421.17487          1998.25345          2476.96440           681.95693           731.63504          1341.66722          4420.98973          1214.81112          2506.67131          1150.37056           587.10887          1396.27276          1517.88736           444.13930          3356.80767           476.62499          1305.36896          5682.84219          3867.45582          1749.79533          5788.48929           316.51169           827.01958           450.04701          1818.98242          2647.61658          1687.78988          3047.12405          1720.52792          2384.60147           744.66249          1434.56840          1324.68838          1708.07821         10337.89835          3474.83632           923.65618          4873.71045          4506.51999           847.92204           622.85475          5378.50837          2518.72820          4330.84732          5315.48292          1381.65023           762.91135           677.09865           465.22889           761.00936          4654.99088          1595.85642           936.07379          1616.18041           346.79244          1058.29164          1632.62550          3881.88947           921.24906           910.88263           696.59294           704.88670          1524.37129          1369.04106           744.90338          2872.93806          2775.67461          3350.49876          2973.60232          5675.70260          4930.00920          2216.97302           515.64857          4565.74475          1120.47385          1545.28705           658.65269          1319.73200           843.51091           361.85465          6777.41010          5024.47526          1426.31548          1474.87685          2636.25604          2100.20968          2813.10314          2906.50171           821.75737          1062.32277           536.45833           956.83956           370.55311           481.68841           863.22343           538.62831          1979.27683          5408.61189          3238.28820          1458.91696          2339.11138          1299.09892          1539.54521          7854.30381          5270.28406          1772.64838           387.86855           617.51691          5455.04795           604.79270          3687.58947          4544.83004          1023.40839          2493.27698           633.53725          1029.55923          1033.24628          2443.30979          2422.49073          2493.28092           614.42699           455.93667          1180.76009           377.38271           619.52799           402.87340          3216.64684          4847.99936           468.36973          2743.25593           731.89495          2349.77657          1245.78236           769.93948           577.04337           643.10872           572.58682          1954.16862           671.77303          1351.66138           621.18665          2635.38396          1852.53843          4109.22908          2836.13515           572.59403           538.24755           351.77188          2749.53215           694.14512           665.08148          1130.67461          2409.03697           875.67621           721.51841           544.82585          1118.52524          1103.24416          1434.93120          1367.99052           560.88081           784.46359           663.84456          2480.26764          2158.01616          1161.73084          7468.93312          1010.96657           738.88372           840.96641          1276.73919          2470.86005          1533.50869          1525.88350          1366.31789          2499.11109           891.16787          7057.19445          1516.00912          2585.92041           696.61045          1188.57510          3885.88092          3150.03041           710.37418           998.36054          3011.63426           470.77971           508.16035          1161.24031          2871.05433          6036.26320          1410.59149          7006.88879          1125.91494          1563.52240          1472.60271          1215.65276           481.44909           740.27528          2486.49153           701.02653          3836.44939           621.48301          2925.73629           889.55572           615.31517          1341.66329          1955.92753          2634.29243          4890.75267          2456.30012          1480.15956          1655.55879          1205.46170          6229.39735          7351.40798          2026.22768           919.79304          2616.78094           557.91220          1144.32660           844.74916          2237.98614          1169.48768           984.79040           537.27400           572.89806          3615.37956           865.22211           682.57350          6475.09909          3814.60442          2260.99153          1261.51673          9283.73880           793.31295          2276.85776          2968.68766          1959.51471           956.22849          2878.54947          5836.89711          1537.74748           400.36414           640.39825           817.66248          1726.90318          1660.38773           588.45757           655.17645          7196.88128           712.27991          1188.93276          1938.06535          3750.81875          5807.71013           413.64188          1221.71446           809.62271           995.80501          1831.27090           682.92990           783.75047          1401.59774           866.45486           616.56855           370.56872           724.49226          2852.33305           464.02096          2923.00861          1503.31450          2224.00811          1286.18130          1669.92677          1546.19074           380.62064          3494.03169          1439.48188          1934.74736          1654.06164          2243.04174          6247.60051          1003.12128          5375.14140           554.96642           699.53828          1451.15006          1186.70408          7429.87948          2556.97703           779.33496          1720.77933          4008.68125          3244.56572           583.48863          5022.88317          1403.19938          2719.82315          1078.95101          3951.35855          3652.94258           465.22265          3563.40119          4187.01059          2265.85217          5586.03440           768.67791           724.16377          1174.05750          2423.36418           456.51920          7578.15569          4268.64936           612.07233          1576.99498          1531.90199          1929.34589           776.00095          1157.57892         11771.84285           661.60342          2183.49699          1221.72982           460.77674           738.07198          2156.90601          4779.87885          6653.19503          1492.32897          2786.51087          2346.56109          4789.16239           708.89761          1291.64027          2046.55672          1652.04777          5464.44532           547.82208          1173.42141          2675.85608           757.20087          3537.59651          2072.43693          6653.99672          2140.19103          1285.21338          1122.79366           582.89986          5313.83773          7106.39113          2079.79601           364.86467           360.60766           781.75367           711.55314          6390.90480          1367.61996          2017.44957          2794.10342          2912.32830          5530.28097          5842.78754           404.95127           593.30375           726.18668          1229.24621           585.57331          4881.68958          3676.58085          1283.11179           813.39547          1012.57018          2309.59197          3680.89089          2167.83167          1800.47862           744.45381          4286.66198          7075.58610           466.83933           648.04099          1733.33224          7142.05926          1802.44317          2992.10899          5490.73502           829.34925          1659.31734          4733.04127           557.79487          1452.64059          1026.02453          4897.75859           840.02383          1765.49011          3011.10257          5979.79028          5091.44891          6026.99887          4739.55823          4392.77553          1685.35915           772.57820          3736.21262          8716.32887           622.37159          2186.35620          2400.46836           314.04406          2412.13127          2958.60399          2342.41287           438.66378          4581.06680           783.86063          3138.00090          3860.92345          1848.60768           713.74099          2727.95334          3369.52256          5961.43170          6270.07183          5483.29958           600.60448           612.77069          1098.27503          5319.46921          1054.79216          2558.18443           753.69956           676.352