# vtk DataFile Version 3.0
Output from R2
ASCII
DATASET UNSTRUCTURED_GRID
POINTS       1414 double
     0.00000  2968.10000   0.
     1.54000  2966.60000   0.
     3.08000  2964.90000   0.
     4.61000  2964.10000   0.
     6.15000  2963.30000   0.
     7.69000  2962.60000   0.
     9.23000  2961.50000   0.
    10.76000  2960.70000   0.
    12.30000  2960.00000   0.
    13.84000  2959.30000   0.
    15.38000  2958.70000   0.
    16.91000  2958.10000   0.
    18.45000  2957.30000   0.
    19.99000  2956.60000   0.
    21.52000  2955.80000   0.
    23.06000  2955.00000   0.
    24.60000  2954.30000   0.
    26.14000  2953.50000   0.
    27.68000  2952.80000   0.
    29.21000  2951.90000   0.
    30.75000  2951.10000   0.
    32.29000  2950.20000   0.
    33.83000  2949.50000   0.
    35.36000  2948.70000   0.
    36.90000  2948.10000   0.
    38.44000  2947.30000   0.
    39.98000  2946.70000   0.
    41.51000  2946.10000   0.
    43.05000  2945.50000   0.
    44.59000  2945.10000   0.
    46.13000  2944.50000   0.
    47.66000  2944.10000   0.
    49.20000  2943.60000   0.
    50.74000  2943.40000   0.
    52.28000  2943.00000   0.
    53.81000  2942.50000   0.
    55.35000  2942.10000   0.
    56.89000  2941.60000   0.
    58.43000  2941.00000   0.
    59.96000  2940.60000   0.
    61.50000  2940.10000   0.
    63.04000  2939.50000   0.
    64.58000  2939.10000   0.
    66.11000  2939.20000   0.
    67.65000  2939.20000   0.
    69.19000  2939.10000   0.
    70.73000  2938.90000   0.
    72.26000  2938.60000   0.
    73.80000  2938.30000   0.
    75.34000  2938.50000   0.
    76.88000  2938.70000   0.
    78.41000  2938.60000   0.
    79.95000  2938.80000   0.
    81.49000  2938.90000   0.
    83.03000  2939.10000   0.
    84.56000  2939.10000   0.
     3.42000  2957.55000   0.
     8.97000  2954.51000   0.
    14.52000  2951.86000   0.
    20.07000  2949.38000   0.
    25.63000  2946.59000   0.
    31.18000  2943.67000   0.
    36.73000  2940.99000   0.
    42.28000  2938.62000   0.
    47.83000  2936.87000   0.
    53.39000  2935.46000   0.
    58.94000  2933.69000   0.
    64.49000  2931.95000   0.
    70.04000  2931.81000   0.
    75.60000  2931.36000   0.
    81.15000  2931.70000   0.
     0.51333  2967.60000   0.
     1.02667  2967.10000   0.
     2.05333  2966.03333   0.
     2.56667  2965.46667   0.
     3.59000  2964.63333   0.
     4.10000  2964.36667   0.
     5.12333  2963.83333   0.
     5.63667  2963.56667   0.
     6.66333  2963.06667   0.
     7.17667  2962.83333   0.
     8.20333  2962.23333   0.
     8.71667  2961.86667   0.
     9.74000  2961.23333   0.
    10.25000  2960.96667   0.
    11.27333  2960.46667   0.
    11.78667  2960.23333   0.
    12.81333  2959.76667   0.
    13.32667  2959.53333   0.
    14.35333  2959.10000   0.
    14.86667  2958.90000   0.
    15.89000  2958.50000   0.
    16.40000  2958.30000   0.
    17.42333  2957.83333   0.
    17.93667  2957.56667   0.
    18.96333  2957.06667   0.
    19.47667  2956.83333   0.
    20.50000  2956.33333   0.
    21.01000  2956.06667   0.
    22.03333  2955.53333   0.
    22.54667  2955.26667   0.
    23.57333  2954.76667   0.
    24.08667  2954.53333   0.
    25.11333  2954.03333   0.
    25.62667  2953.76667   0.
    26.65333  2953.26667   0.
    27.16667  2953.03333   0.
    28.19000  2952.50000   0.
    28.70000  2952.20000   0.
    29.72333  2951.63333   0.
    30.23667  2951.36667   0.
    31.26333  2950.80000   0.
    31.77667  2950.50000   0.
    32.80333  2949.96667   0.
    33.31667  2949.73333   0.
    34.34000  2949.23333   0.
    34.85000  2948.96667   0.
    35.87333  2948.50000   0.
    36.38667  2948.30000   0.
    37.41333  2947.83333   0.
    37.92667  2947.56667   0.
    38.95333  2947.10000   0.
    39.46667  2946.90000   0.
    40.49000  2946.50000   0.
    41.00000  2946.30000   0.
    42.02333  2945.90000   0.
    42.53667  2945.70000   0.
    43.56333  2945.36667   0.
    44.07667  2945.23333   0.
    45.10333  2944.90000   0.
    45.61667  2944.70000   0.
    46.64000  2944.36667   0.
    47.15000  2944.23333   0.
    48.17333  2943.93333   0.
    48.68667  2943.76667   0.
    49.71333  2943.53333   0.
    50.22667  2943.46667   0.
    51.25333  2943.26667   0.
    51.76667  2943.13333   0.
    52.79000  2942.83333   0.
    53.30000  2942.66667   0.
    54.32333  2942.36667   0.
    54.83667  2942.23333   0.
    55.86333  2941.93333   0.
    56.37667  2941.76667   0.
    57.40333  2941.40000   0.
    57.91667  2941.20000   0.
    58.94000  2940.86667   0.
    59.45000  2940.73333   0.
    60.47333  2940.43333   0.
    60.98667  2940.26667   0.
    62.01333  2939.90000   0.
    62.52667  2939.70000   0.
    63.55333  2939.36667   0.
    64.06667  2939.23333   0.
    65.34500  2939.15000   0.
    66.88000  2939.20000   0.
    68.42000  2939.15000   0.
    69.70333  2939.03333   0.
    70.21667  2938.96667   0.
    71.24000  2938.80000   0.
    71.75000  2938.70000   0.
    72.77333  2938.50000   0.
    73.28667  2938.40000   0.
    74.31333  2938.36667   0.
    74.82667  2938.43333   0.
    75.85333  2938.56667   0.
    76.36667  2938.63333   0.
    77.64500  2938.65000   0.
    78.92333  2938.66667   0.
    79.43667  2938.73333   0.
    80.72000  2938.85000   0.
    82.00333  2938.96667   0.
    82.51667  2939.03333   0.
    83.79500  2939.10000   0.
     0.08400  2959.57200   0.
     1.19600  2958.89800   0.
     2.30800  2958.22400   0.
     4.53000  2956.94200   0.
     5.64000  2956.33400   0.
     6.75000  2955.72600   0.
     7.86000  2955.11800   0.
    10.35750  2953.84750   0.
    11.74500  2953.18500   0.
    13.13250  2952.52250   0.
    15.90750  2951.24000   0.
    17.29500  2950.62000   0.
    18.68250  2950.00000   0.
    21.18200  2948.82200   0.
    22.29400  2948.26400   0.
    23.40600  2947.70600   0.
    24.51800  2947.14800   0.
    26.74000  2946.00600   0.
    27.85000  2945.42200   0.
    28.96000  2944.83800   0.
    30.07000  2944.25400   0.
    32.56750  2943.00000   0.
    33.95500  2942.33000   0.
    35.34250  2941.66000   0.
    38.11750  2940.39750   0.
    39.50500  2939.80500   0.
    40.89250  2939.21250   0.
    43.66750  2938.18250   0.
    45.05500  2937.74500   0.
    46.44250  2937.30750   0.
    49.22000  2936.51750   0.
    50.61000  2936.16500   0.
    52.00000  2935.81250   0.
    54.77750  2935.01750   0.
    56.16500  2934.57500   0.
    57.55250  2934.13250   0.
    60.32750  2933.25500   0.
    61.71500  2932.82000   0.
    63.10250  2932.38500   0.
    65.87750  2931.91500   0.
    67.26500  2931.88000   0.
    68.65250  2931.84500   0.
    71.43000  2931.69750   0.
    72.82000  2931.58500   0.
    74.21000  2931.47250   0.
    76.98750  2931.44500   0.
    78.37500  2931.53000   0.
    79.76250  2931.61500   0.
    82.53750  2931.75500   0.
    83.92500  2931.81000   0.
     6.60134  2937.05984   0.
    20.80435  2932.52560   0.
     3.78758  2946.36592   0.
    15.48523  2940.98228   0.
    29.30091  2934.50364   0.
    23.90594  2939.46561   0.
    40.87322  2931.62711   0.
     1.03219  2951.87344   0.
    10.83406  2946.32292   0.
    20.42668  2943.42459   0.
    48.80952  2930.83467   0.
    35.50309  2935.49258   0.
     7.54365  2949.73854   0.
    28.57967  2939.84283   0.
    15.90963  2945.83181   0.
    44.30452  2933.27820   0.
    -0.12722  2955.42655   0.
    24.47411  2943.04615   0.
     4.45051  2952.86019   0.
    40.01017  2935.22543   0.
    52.75593  2931.58993   0.
    13.75183  2934.27842   0.
    32.31862  2938.44653   0.
     0.40990  2931.04902   0.
    19.20708  2946.27332   0.
    57.19103  2930.55709   0.
    -0.97178  2947.27328   0.
    19.39705  2939.49643   0.
    11.08068  2950.12444   0.
    32.86215  2930.47012   0.
     7.41320  2941.82707   0.
    13.76382  2948.77946   0.
    27.17579  2942.79365   0.
     7.27112  2952.68663   0.
     2.71547  2954.94653   0.
    22.91159  2945.17994   0.
     2.00816  2941.86911   0.
    24.73355  2934.79062   0.
    47.86753  2934.00196   0.
    50.62083  2933.29089   0.
    60.15732  2930.28185   0.
    37.65425  2937.53830   0.
    44.64836  2929.77041   0.
    10.93416  2939.02064   0.
     4.26476  2949.76242   0.
    36.78915  2931.78219   0.
     7.36345  2946.13476   0.
    30.92470  2941.06806   0.
     6.19921  2931.10091   0.
    35.16618  2938.51604   0.
    16.36294  2929.87801   0.
    13.43632  2943.77014   0.
    42.64967  2935.50406   0.
    26.89596  2931.23775   0.
     1.59760  2936.73753   0.
    17.19200  2948.13905   0.
    -0.61497  2957.60981   0.
    26.49360  2937.36117   0.
     9.56799  2951.50953   0.
    17.55858  2943.77119   0.
    55.26825  2932.33039   0.
    22.03247  2936.46128   0.
    16.10828  2937.24515   0.
    22.48452  2941.40733   0.
    20.86327  2946.43955   0.
    29.71126  2937.35408   0.
    32.14062  2935.59882   0.
    45.26358  2935.44707   0.
    29.19256  2942.39482   0.
    25.22337  2944.48902   0.
    25.77440  2940.40763   0.
     5.12787  2951.33100   0.
     9.72036  2943.07255   0.
     0.63027  2944.64860   0.
     5.15669  2954.13690   0.
    33.80274  2940.56791   0.
     1.57076  2956.41210   0.
     9.31000  2947.97928   0.
     9.87726  2933.53233   0.
    53.60824  2932.85261   0.
    40.63972  2936.89193   0.
    13.47285  2946.23828   0.
    37.68088  2934.75035   0.
    46.32767  2931.88185   0.
    18.64740  2941.16071   0.
    13.09413  2950.32980   0.
    18.01744  2935.92389   0.
     0.55332  2948.73049   0.
     5.35766  2947.55011   0.
    42.44669  2933.52960   0.
    57.75733  2932.24094   0.
    23.68300  2931.83870   0.
    19.94397  2947.74183   0.
    61.81887  2931.15328   0.
[...]
POINT_DATA      1414
CELL_DATA      2568
SCALARS Resistivity(ohm.m) double 1
LOOKUP_TABLE default
          1046.50122          1542.88570          2353.02159          1016.12157           523.87251          2181.66363          1291.36402          1446.74009          1519.60078          1968.61121           833.58704          1961.22303           684.68503          2354.76094          2311.41358          1840.89471          1387.72320           406.98012           451.69807          2316.06672          1224.31392          1799.16113          1107.58291           636.72028          1693.65550           538.39397           286.11817          2125.41931          2224.64892          2339.25688           471.69220           533.91073          1460.41694           375.09094           388.31054          1647.59862           757.09516           935.59390          1075.59315          1518.90095          1712.85756           757.75383           468.74350          2390.26891           366.32204           399.41473          3172.04072           872.29708           698.90954           964.48400          2655.87596          1703.12393          1007.80061          1402.56346          2435.33492           901.25749           388.89407          2246.35062           429.97011          1051.77608           567.17061          2080.50935           406.57791          1757.00437           297.97947          1424.34247          1996.94274          1875.93419           322.16682           711.89840           503.28217           812.81228          1992.79870           424.94919           325.25325          3193.45965          1248.90313           402.68924           335.31099          2970.32673          2759.73234          1382.94313           428.62426           417.33254          1953.68336           774.71468           366.70450          2071.32631           896.15569          1714.95351           999.96528           389.10306          2223.36461           357.90950          1777.37094          1905.86157           505.13706          1135.78779          2167.63386           964.16198          1346.24467           556.55842           655.78885           784.78233           996.62138          1546.85913           496.29799           954.05861          2241.03150          1194.38707           379.86531          1128.26426          2686.44164          1613.68110          1966.10926          1170.97993          1054.57335          1316.90840           452.61857           348.60580          2247.70505          1213.07786          3264.71030           774.37078           471.19510          1929.05303          2523.75013          3489.59407          1671.45971          1388.11063          1918.33582          1002.48763          1083.53893          2260.80693           865.40252          3068.29048           371.96646          1496.05758           960.06343          1218.39674          1392.36221           511.33700           626.64125          1316.00778          1456.26235           583.78859           427.84936          1275.44075          1780.54045           591.21341          2389.13956          1786.85060           937.13261           737.41249          2254.96930           302.10414          1519.67311           370.41599          2240.43222          1120.25141          1111.93095           499.47428          2379.65669           423.81783          2174.86088           601.54276          1414.75832          1784.92253          1828.94484          1535.73944           770.36847           817.31700           714.92545           302.85803           418.17794           946.95126           795.52735          3777.91043          2846.67502          1061.43148          2197.72783          1330.69699          1827.10328           762.55347           575.40361           928.44835           845.16780           653.34485           894.62789          2612.16503          1067.74615          2505.38499           585.62100          2817.19091           303.76694           499.38709          2713.77906          1942.33937          1096.03832           426.23005           298.93816           849.48912          1618.06019          1255.44326          1747.42206           978.31100          4041.34244          2430.64348           410.65582          2291.71363          1138.72883           628.67246           423.09935           364.19314           628.71846          1063.66215          2419.76101           488.94623          1111.71815           505.21520           897.36939          1197.98411          1038.79392           367.95327           695.25663           634.66324           376.13655           539.57223          1161.70467           368.74015          1044.60077          2069.23975          1220.48653          3182.85331          2355.28976          1538.00353          2434.50310          1325.89100          1251.09094          1182.10478          2763.05620           721.97744           918.38533           430.93040          2547.46434           287.73332          1666.96134           446.68014           408.26359          2061.76817           280.61856          2012.76359          1570.11717           674.77174          1839.16842           958.74261           701.88973           714.27097           748.71350          3096.87515           657.00905          2180.10541           437.35898           450.77155           422.75050          1484.10361           385.93203          2242.38852           872.52865          2491.61544           996.70515          2093.53070          2517.06992          2130.79678           446.00514          1407.95951          2285.27560           425.39932           730.25776           712.68328           425.55569          1217.18819           302.44847           927.98011           930.92745          2299.04370           465.01191          2373.96058           690.89476           441.80980           948.04684           325.81794          2301.32238           645.64385          1771.45731          2213.46140          1266.26745           522.14237           460.39048           637.58061          1030.62242           422.43715          2519.78187          2700.71344           365.56429          1679.68527          1140.63800          1322.27044          1848.50229           375.46535           676.40210           666.54618           327.33960          2224.05705           821.83596           354.60417           459.51135          1123.46874          2947.11789           464.22254          3528.99276           423.59749           903.32024           431.73190           524.69246          1058.86970           422.27813          1233.80964           972.36288          3100.18832          1564.43910          2068.97970           511.86230          1415.58423           384.12905           412.62751           579.36922           643.52640          3426.56092           613.67391          2067.68639           393.32188          1993.56290           409.04083           576.74639          1641.82815          1106.90067          1088.45790           421.97279          2080.42789           415.30291          2575.93645           768.94844           381.57530           451.57951          1959.07183           467.10750          1402.48418           350.68751           407.96940           855.91765          1344.90884           919.22514           525.30641          1173.74042           503.05110           374.72649          2240.56674          1600.76131          2814.52918           408.29553          1143.20312          1215.23240          1013.02664           332.70299          2851.18518           423.55695           464.07765           382.41346          1893.88592          1175.14222           402.25176          1642.68322          2429.33192           282.81000          1175.00878           618.37125          1255.92002           429.36751          1361.75527           686.22636           369.03723          1250.17014          1356.59679           409.54131           848.25971           566.14875          1299.21794          1552.40723          1009.59564           632.36294           614.96938          1172.51789          1304.44337          1152.76726           858.47228           567.38178           908.81039          2203.28406          1448.93274          1325.91069          2131.24980          1008.41938           636.18647          1141.07492          2465.08510           720.53350           820.86218           760.12478          1562.65896           982.62105           400.12048          2120.23913          1284.38475          1145.59460           316.76788          1572.23221           634.46012          1211.53825           434.77634          1174.90425           425.38836           401.38904          1960.27312          1005.38888          1267.70282          1312.54490           713.84039          1768.08826          1266.53048          3775.24505           638.92247          1051.35285          2162.30946          1026.98868          1042.47456          1142.72872          1069.10854          4331.74838           837.49030          3565.45890          1366.82615          1412.18022          1190.24345          1612.45920           846.50333          2128.90678           887.82265          1246.02430           390.59605          1701.78273          1155.82737           857.82842          1261.57740          2092.71734           833.69724           891.25899          1145.46874          1670.88336          1469.19269           848.41081          1615.18507           893.05467           320.95563          1729.73446          4067.36734          1041.58994           438.95866          1383.36685           777.33966          1091.99584          1943.52983           493.95016           482.86977          2032.67080          2891.95347          1200.63929           363.01281           713.70972           815.19104          1119.20431          1107.79793           982.64330          1356.07920           792.35077          1308.88919           770.60476          1014.83972          2663.15198          1609.94632           728.38950           337.32437           664.03843          1154.15192           788.55377          1117.47784          3851.35925          1114.93745           386.66590           464.41417          1199.83768          1096.51742           897.76074           422.27275          3405.65022          1258.52413           393.04309          3527.52734          2224.28898           386.13475          1229.67727          1099.75513          1003.59038          1138.64793          1013.33200           542.19355          1469.40941          1274.61071          1286.63175          1248.17659           698.81736          1619.15172           408.54879          1188.82777           573.14327           391.06236           728.25327          1516.80430          1037.78372           894.39828           404.13688           414.11278          1493.04209          1058.92327          3877.08872          4905.26041          3110.88672          1854.97324          1987.35000          2476.64568          4183.58722          5186.66586           718.02936          4730.28325           387.89849           988.27706          1261.98672           666.71127          4178.26891          5143.71958          1159.52978           408.18094          2112.25743          2505.45161           647.51635           774.65921          1290.89080          4258.58752          1308.31711          2260.31706          1175.82981           633.67133          1315.71686          1509.86465           490.45558          3423.18607           458.61238          1369.77566          5533.78602          3722.02019          1776.58528          5520.41300           302.22201           793.44598           443.76252          1892.95715          2762.37388          1723.95045          3486.50240          1796.64819          2372.15755           683.29973          1430.93489          1328.23003          1666.95832         10166.39768          3419.02385           886.96414          4670.95139          4602.65753           831.49556           603.99747          5406.38425          2465.04522          4128.54003          4986.70377          1396.89082           778.08680           686.06501           468.02183           758.23299          4918.83675          1628.41749           919.84784          1573.16378           335.93388          1051.06923          1693.17464          3878.59335           970.04995           892.80001           700.85623           663.65871          1508.85295          1423.45062           778.34066          2820.91754          2709.16322          3453.87209          3023.34158          5342.20210          5114.31839          2284.57590           512.12515          4226.55976          1118.56413          1554.90612           686.54304          1274.60428           790.84458           375.11821          6324.16267          5205.69804          1388.45487          1533.32288          2710.92798          2150.67438          2642.75975          2812.23158           823.13346          1066.01175           538.83898           991.04590           363.54039           452.24120           898.10482           543.08143          2089.00820          5969.19854          3407.32052          1462.33100          2385.81223          1303.27087          1643.41395          7810.67690          5140.40659          1793.83914           382.12642           644.78282          5330.59262           609.41502          3527.20279          4543.59644          1008.64001          2542.83040           658.62188           996.95279          1009.33405          2590.61105          2539.59834          2409.79221           639.97179           456.21150          1180.24134           364.65296           642.23585           408.49154          3132.13723          5019.24688           508.76787          2743.43260           762.20550          2297.48337          1166.52550           791.30246           600.38630           628.71124           604.61181          2032.35943           712.49671          1333.69983           652.70790          2803.20807          1827.22569          4416.71945          2630.02310           549.77807           513.41799           337.67509          2805.44209           694.06179           695.94470          1097.52590          2378.21156           942.25881           703.52339           554.62570          1096.37144          1091.88220          1521.48499          1379.03313           587.74967           740.16582           584.40362          2520.46336          2235.28290          1179.58976          7533.88656           983.21399           848.05858           827.24554          1308.05639          2808.16723          1497.00654          1429.21230          1446.60904          2385.39407           970.79467          6682.24991          1638.51240          2665.24131           787.02117          1199.66326          3906.04776          3158.74006           716.91624          1006.89945          2945.75618           496.04929           534.43118          1109.00703          2713.18782          5876.34431          1342.83032          6862.56356          1223.85694          1619.19904          1437.14252          1149.31067           505.66367           760.13705          2513.74573           701.31327          3998.64731           649.88418          2883.44297           940.04462           626.43552          1389.89084          1829.90169          2676.42341          4987.46026          2414.35728          1354.74180          1601.33093          1135.63780          6488.37598          7318.97089          2029.50634           934.95914          2609.23620           589.32430          1131.01021           891.60244          2318.14569          1146.51631           975.66899           523.50720           595.59640          3524.49072           951.54555           688.87087          6256.38601          3946.09442          2166.48971          1328.20821          9610.10633           823.35131          2314.23414          3042.28024          1882.90764          1070.06937          2808.08015          5906.85781          1528.31534           389.55561           575.14179           794.29051          1944.20207          1635.01340           628.31285           632.22711          7299.07755           692.50739          1263.63585          1942.40831          3612.88015          6198.46264           414.95494          1204.63545           806.35742           960.47780          2080.01938           686.65172           797.44936          1385.31044           871.76523           644.98670           365.97679           769.34329          2959.84712           466.43164          3062.16451          1511.32081          2271.17293          1210.20286          1679.73108          1503.97565           376.15164          3607.03613          1494.71275          1961.55978          1602.25823          2445.96973          6840.83977           957.70218          5107.19207           571.70709           697.69846          1359.61140          1144.59326          7353.00479          2664.91651           854.97529          1712.64833          4129.65872          3206.12734           525.55183          5402.91671          1539.76862          2756.42938          1070.06242          3996.69939          3716.75129           438.41222          3600.30281          4262.17401          2356.78748          6081.10069           750.86690           751.39406          1132.27452          2425.19325           494.48393          7633.76935          4294.58182           560.20829          1587.95656          1614.47526          1917.56405           761.97299          1152.67488         12527.65503           680.82847          2205.69929          1228.35449           470.45423           750.06125          2059.35280          4757.40356          6747.87335          1517.53378          2722.19130          2276.60986          4678.35664           690.75688          1351.75107          2255.66358          1670.44352          5770.93399           556.09751          1141.93114          2581.36104           755.39555          3241.64063          2063.92197          6398.29367          2327.68735          1410.63923          1107.37620           599.40438          5852.18432          6905.77838          2506.26158           359.12284           345.46698           857.00629           704.78862          6247.43156          1263.11351          1839.29492          2793.81984          2799.10587          5632.54081          6139.62344           415.66876           611.50667           724.72779          1232.99321           591.48056          4958.25879          3677.61692          1401.20988           863.46728          1018.52669          2469.43987          3793.28970          2168.79023          1732.78040           817.00175          4459.98595          7120.38237           481.42469           599.16516          1730.25358          6975.94234          1979.96413          2877.77213          5311.48564           865.17378          1722.39768          4711.70761           574.14280          1430.57658          1002.85762          4926.75033           864.27893          1722.11536          3039.52921          5759.95818          5202.44839          5802.01769          4694.79303          4435.16523          1620.13467           722.79185          3774.32115          8850.07901           661.14022          2066.57412          2393.76980           300.59236          2275.05869          3101.08221          2415.27505           413.50138          4886.46787           823.78944          3084.59478          3850.16828          1886.18677           751.65765          2550.11274          3295.13253          6140.27276          6167.28717          5254.70326           563.77950           639.26864          1207.21353          5502.30736          1096.80544          2657.61165           827.60687           684.915