# vtk DataFile Version 3.0
Output from R2
ASCII
DATASET UNSTRUCTURED_GRID
POINTS       1414 double
     0.00000  2968.10000   0.
     1.54000  2966.60000   0.
     3.08000  2964.90000   0.
     4.61000  2964.10000   0.
     6.15000  2963.30000   0.
     7.69000  2962.60000   0.
     9.23000  2961.50000   0.
    10.76000  2960.70000   0.
    12.30000  2960.00000   0.
    13.84000  2959.30000   0.
    15.38000  2958.70000   0.
    16.91000  2958.10000   0.
    18.45000  2957.30000   0.
    19.99000  2956.60000   0.
    21.52000  2955.80000   0.
    23.06000  2955.00000   0.
    24.60000  2954.30000   0.
    26.14000  2953.50000   0.
    27.68000  2952.80000   0.
    29.21000  2951.90000   0.
    30.75000  2951.10000   0.
    32.29000  2950.20000   0.
    33.83000  2949.50000   0.
    35.36000  2948.70000   0.
    36.90000  2948.10000   0.
    38.44000  2947.30000   0.
    39.98000  2946.70000   0.
    41.51000  2946.10000   0.
    43.05000  2945.50000   0.
    44.59000  2945.10000   0.
    46.13000  2944.50000   0.
    47.66000  2944.10000   0.
    49.20000  2943.60000   0.
    50.74000  2943.40000   0.
    52.28000  2943.00000   0.
    53.81000  2942.50000   0.
    55.35000  2942.10000   0.
    56.89000  2941.60000   0.
    58.43000  2941.00000   0.
    59.96000  2940.60000   0.
    61.50000  2940.10000   0.
    63.04000  2939.50000   0.
    64.58000  2939.10000   0.
    66.11000  2939.20000   0.
    67.65000  2939.20000   0.
    69.19000  2939.10000   0.
    70.73000  2938.90000   0.
    72.26000  2938.60000   0.
    73.80000  2938.30000   0.
    75.34000  2938.50000   0.
    76.88000  2938.70000   0.
    78.41000  2938.60000   0.
    79.95000  2938.80000   0.
    81.49000  2938.90000   0.
    83.03000  2939.10000   0.
    84.56000  2939.10000   0.
     3.42000  2957.55000   0.
     8.97000  2954.51000   0.
    14.52000  2951.86000   0.
    20.07000  2949.38000   0.
    25.63000  2946.59000   0.
    31.18000  2943.67000   0.
    36.73000  2940.99000   0.
    42.28000  2938.62000   0.
    47.83000  2936.87000   0.
    53.39000  2935.46000   0.
    58.94000  2933.69000   0.
    64.49000  2931.95000   0.
    70.04000  2931.81000   0.
    75.60000  2931.36000   0.
    81.15000  2931.70000   0.
     0.51333  2967.60000   0.
     1.02667  2967.10000   0.
     2.05333  2966.03333   0.
     2.56667  2965.46667   0.
     3.59000  2964.63333   0.
     4.10000  2964.36667   0.
     5.12333  2963.83333   0.
     5.63667  2963.56667   0.
     6.66333  2963.06667   0.
     7.17667  2962.83333   0.
     8.20333  2962.23333   0.
     8.71667  2961.86667   0.
     9.74000  2961.23333   0.
    10.25000  2960.96667   0.
    11.27333  2960.46667   0.
    11.78667  2960.23333   0.
    12.81333  2959.76667   0.
    13.32667  2959.53333   0.
    14.35333  2959.10000   0.
    14.86667  2958.90000   0.
    15.89000  2958.50000   0.
    16.40000  2958.30000   0.
    17.42333  2957.83333   0.
    17.93667  2957.56667   0.
    18.96333  2957.06667   0.
    19.47667  2956.83333   0.
    20.50000  2956.33333   0.
    21.01000  2956.06667   0.
    22.03333  2955.53333   0.
    22.54667  2955.26667   0.
    23.57333  2954.76667   0.
    24.08667  2954.53333   0.
    25.11333  2954.03333   0.
    25.62667  2953.76667   0.
    26.65333  2953.26667   0.
    27.16667  2953.03333   0.
    28.19000  2952.50000   0.
    28.70000  2952.20000   0.
    29.72333  2951.63333   0.
    30.23667  2951.36667   0.
    31.26333  2950.80000   0.
    31.77667  2950.50000   0.
    32.80333  2949.96667   0.
    33.31667  2949.73333   0.
    34.34000  2949.23333   0.
    34.85000  2948.96667   0.
    35.87333  2948.50000   0.
    36.38667  2948.30000   0.
    37.41333  2947.83333   0.
    37.92667  2947.56667   0.
    38.95333  2947.10000   0.
    39.46667  2946.90000   0.
    40.49000  2946.50000   0.
    41.00000  2946.30000   0.
    42.02333  2945.90000   0.
    42.53667  2945.70000   0.
    43.56333  2945.36667   0.
    44.07667  2945.23333   0.
    45.10333  2944.90000   0.
    45.61667  2944.70000   0.
    46.64000  2944.36667   0.
    47.15000  2944.23333   0.
    48.17333  2943.93333   0.
    48.68667  2943.76667   0.
    49.71333  2943.53333   0.
    50.22667  2943.46667   0.
    51.25333  2943.26667   0.
    51.76667  2943.13333   0.
    52.79000  2942.83333   0.
    53.30000  2942.66667   0.
    54.32333  2942.36667   0.
    54.83667  2942.23333   0.
    55.86333  2941.93333   0.
    56.37667  2941.76667   0.
    57.40333  2941.40000   0.
    57.91667  2941.20000   0.
    58.94000  2940.86667   0.
    59.45000  2940.73333   0.
    60.47333  2940.43333   0.
    60.98667  2940.26667   0.
    62.01333  2939.90000   0.
    62.52667  2939.70000   0.
    63.55333  2939.36667   0.
    64.06667  2939.23333   0.
    65.34500  2939.15000   0.
    66.88000  2939.20000   0.
    68.42000  2939.15000   0.
    69.70333  2939.03333   0.
    70.21667  2938.96667   0.
    71.24000  2938.80000   0.
    71.75000  2938.70000   0.
    72.77333  2938.50000   0.
    73.28667  2938.40000   0.
    74.31333  2938.36667   0.
    74.82667  2938.43333   0.
    75.85333  2938.56667   0.
    76.36667  2938.63333   0.
    77.64500  2938.65000   0.
    78.92333  2938.66667   0.
    79.43667  2938.73333   0.
    80.72000  2938.85000   0.
    82.00333  2938.96667   0.
    82.51667  2939.03333   0.
    83.79500  2939.10000   0.
     0.08400  2959.57200   0.
     1.19600  2958.89800   0.
     2.30800  2958.22400   0.
     4.53000  2956.94200   0.
     5.64000  2956.33400   0.
     6.75000  2955.72600   0.
     7.86000  2955.11800   0.
    10.35750  2953.84750   0.
    11.74500  2953.18500   0.
    13.13250  2952.52250   0.
    15.90750  2951.24000   0.
    17.29500  2950.62000   0.
    18.68250  2950.00000   0.
    21.18200  2948.82200   0.
    22.29400  2948.26400   0.
    23.40600  2947.70600   0.
    24.51800  2947.14800   0.
    26.74000  2946.00600   0.
    27.85000  2945.42200   0.
    28.96000  2944.83800   0.
    30.07000  2944.25400   0.
    32.56750  2943.00000   0.
    33.95500  2942.33000   0.
    35.34250  2941.66000   0.
    38.11750  2940.39750   0.
    39.50500  2939.80500   0.
    40.89250  2939.21250   0.
    43.66750  2938.18250   0.
    45.05500  2937.74500   0.
    46.44250  2937.30750   0.
    49.22000  2936.51750   0.
    50.61000  2936.16500   0.
    52.00000  2935.81250   0.
    54.77750  2935.01750   0.
    56.16500  2934.57500   0.
    57.55250  2934.13250   0.
    60.32750  2933.25500   0.
    61.71500  2932.82000   0.
    63.10250  2932.38500   0.
    65.87750  2931.91500   0.
    67.26500  2931.88000   0.
    68.65250  2931.84500   0.
    71.43000  2931.69750   0.
    72.82000  2931.58500   0.
    74.21000  2931.47250   0.
    76.98750  2931.44500   0.
    78.37500  2931.53000   0.
    79.76250  2931.61500   0.
    82.53750  2931.75500   0.
    83.92500  2931.81000   0.
     6.60134  2937.05984   0.
    20.80435  2932.52560   0.
     3.78758  2946.36592   0.
    15.48523  2940.98228   0.
    29.30091  2934.50364   0.
    23.90594  2939.46561   0.
    40.87322  2931.62711   0.
     1.03219  2951.87344   0.
    10.83406  2946.32292   0.
    20.42668  2943.42459   0.
    48.80952  2930.83467   0.
    35.50309  2935.49258   0.
     7.54365  2949.73854   0.
    28.57967  2939.84283   0.
    15.90963  2945.83181   0.
    44.30452  2933.27820   0.
    -0.12722  2955.42655   0.
    24.47411  2943.04615   0.
     4.45051  2952.86019   0.
    40.01017  2935.22543   0.
    52.75593  2931.58993   0.
    13.75183  2934.27842   0.
    32.31862  2938.44653   0.
     0.40990  2931.04902   0.
    19.20708  2946.27332   0.
    57.19103  2930.55709   0.
    -0.97178  2947.27328   0.
    19.39705  2939.49643   0.
    11.08068  2950.12444   0.
    32.86215  2930.47012   0.
     7.41320  2941.82707   0.
    13.76382  2948.77946   0.
    27.17579  2942.79365   0.
     7.27112  2952.68663   0.
     2.71547  2954.94653   0.
    22.91159  2945.17994   0.
     2.00816  2941.86911   0.
    24.73355  2934.79062   0.
    47.86753  2934.00196   0.
    50.62083  2933.29089   0.
    60.15732  2930.28185   0.
    37.65425  2937.53830   0.
    44.64836  2929.77041   0.
    10.93416  2939.02064   0.
     4.26476  2949.76242   0.
    36.78915  2931.78219   0.
     7.36345  2946.13476   0.
    30.92470  2941.06806   0.
     6.19921  2931.10091   0.
    35.16618  2938.51604   0.
    16.36294  2929.87801   0.
    13.43632  2943.77014   0.
    42.64967  2935.50406   0.
    26.89596  2931.23775   0.
     1.59760  2936.73753   0.
    17.19200  2948.13905   0.
    -0.61497  2957.60981   0.
    26.49360  2937.36117   0.
     9.56799  2951.50953   0.
    17.55858  2943.77119   0.
    55.26825  2932.33039   0.
    22.03247  2936.46128   0.
    16.10828  2937.24515   0.
    22.48452  2941.40733   0.
    20.86327  2946.43955   0.
    29.71126  2937.35408   0.
    32.14062  2935.59882   0.
    45.26358  2935.44707   0.
    29.19256  2942.39482   0.
    25.22337  2944.48902   0.
    25.77440  2940.40763   0.
     5.12787  2951.33100   0.
     9.72036  2943.07255   0.
     0.63027  2944.64860   0.
     5.15669  2954.13690   0.
    33.80274  2940.56791   0.
     1.57076  2956.41210   0.
     9.31000  2947.97928   0.
     9.87726  2933.53233   0.
    53.60824  2932.85261   0.
    40.63972  2936.89193   0.
    13.47285  2946.23828   0.
    37.68088  2934.75035   0.
    46.32767  2931.88185   0.
    18.64740  2941.16071   0.
    13.09413  2950.32980   0.
    18.01744  2935.92389   0.
     0.55332  2948.73049   0.
     5.35766  2947.55011   0.
    42.44669  2933.52960   0.
    57.75733  2932.24094   0.
    23.68300  2931.83870   0.
    19.94397  2947.74183   0.
    61.81887  2931.15328   0.
[...]
POINT_DATA      1414
CELL_DATA      2568
SCALARS Resistivity(ohm.m) double 1
LOOKUP_TABLE default
          1157.50964          1799.15462          2124.26063          1097.22089           493.39700          2096.43660          1278.33615          1490.08789          1745.57105          2033.03120           770.76809          2006.75247           571.68453          2226.51769          2207.14166          1871.82042          1663.53097           478.95814           406.70206          2218.01584          1189.60495          1916.57979          1333.34756           567.99148          1891.64090           496.24313           285.26346          2085.97144          2185.87853          2123.33244           427.46784           513.07533          1734.54908           417.70390           388.89222          1626.42704           726.77531           904.91550          1278.97066          1506.78375          1886.31788           679.72266           397.74170          2263.76865           321.82664           441.75644          2918.80092           818.40773           595.33651           928.70932          2480.53578          1891.13616          1021.71619          1667.73947          2106.29112           850.55422           357.94781          2105.27471           387.43545          1098.22435           502.90416          2088.22963           479.59097          1857.65142           283.88614          1662.82768          2049.33755          2000.20249           300.69854           623.85917           490.37630           785.20454          2047.75029           385.17997           356.25889          2884.40090          1493.91370           464.74850           366.38989          2708.95565          2538.08763          1448.00268           368.26228           447.85899          2026.97099           690.91353           333.48418          2100.37294           868.88574          1913.69167          1027.85673           334.79376          2099.80569           398.12267          1712.89922          2002.10771           527.08283          1245.41572          2133.51094           962.11251          1623.18009           489.96836           562.01115           703.14978          1018.15762          1773.57611           472.13008           938.74090          2019.39948          1336.94114           428.70869          1122.38072          2457.62354          1841.49030          2037.72757          1399.40923          1042.81105          1597.48696           381.81850           325.21580          2151.53693          1462.39886          2977.45489           677.57283           504.65486          2021.32605          2353.30929          3253.23360          1849.92830          1407.52095          2019.27256          1080.72069          1293.49021          2172.72199           800.34729          2769.45034           421.14917          1743.38781           958.17734          1457.85147          1674.06589           467.64139           538.47025          1328.34148          1725.64986           506.39966           397.01494          1551.73759          1943.50910           497.28214          2136.58906          1937.13488           909.75914           681.35406          2161.73917           325.82046          1619.51741           420.74087          2183.19721          1353.05575          1189.71953           454.53606          2285.56290           435.98112          2095.37644           521.21251          1413.84155          1771.26601          1961.09984          1786.27053           708.33614           733.34905           616.94749           292.41565           353.31714           937.46799           711.90879          3518.03033          2586.13901          1131.68258          2122.67242          1437.75477          1975.53236           664.36390           501.38327           901.20537           771.97144           560.66642           870.22525          2389.48549          1266.32318          2317.33663           500.29540          2555.47123           286.20060           426.82179          2476.63771          2029.75743          1262.65725           358.28840           324.38816           822.97703          1830.29608          1530.60968          1774.30356          1005.54312          3811.59548          2135.90350           343.21196          2116.90167          1384.60847           537.27741           358.60920           349.41957           522.55362          1207.52796          2272.15520           493.40632          1271.38501           446.44325           875.63739          1362.96218          1098.54827           367.35027           590.30651           545.91115           410.33872           460.31936          1377.97146           315.33470          1059.27457          1952.83739          1482.66807          2872.94692          2228.23787          1677.51373          2281.35199          1462.25327          1440.09295          1437.97519          2500.95579           618.80722           885.85636           377.75515          2346.31536           302.18908          1886.86712           441.97218           474.20147          2066.63688           292.24328          1966.07685          1747.61397           581.28519          1980.14320           944.37757           610.01140           619.47601           647.23814          2800.17005           544.05570          2098.03641           485.09089           384.45256           391.42531          1669.94347           366.06239          2102.03370           813.71364          2148.77837          1003.50582          2037.16559          2364.02442          2094.55821           470.25854          1686.78994          2105.90213           476.17705           687.00145           631.37339           487.58831          1475.95322           309.08093           894.16639           910.08956          2119.00042           396.88293          2255.63458           582.96659           474.32976           937.81714           341.47510          2191.44706           559.55584          1943.80740          2122.71545          1486.12110           463.39048           399.50967           545.92749          1001.63621           382.60775          2361.92874          2458.66155           410.14632          1869.92855          1387.15465          1606.68700          1970.63763           414.82452           584.25390           551.56988           295.69882          2112.34882           773.06642           366.60956           463.72204          1162.31322          2678.34109           475.28436          3229.89650           348.26135           934.42431           461.14341           454.81337          1241.04532           411.86410          1486.21831          1003.68380          2799.45809          1816.65872          2070.80646           437.25212          1618.78116           320.94358           343.23744           496.66601           546.66334          3129.00137           507.59401          2079.74926           449.87838          2047.48331           448.36066           501.12128          1850.46752          1211.29602          1093.41525           411.53098          2080.06834           471.91548          2368.52511           677.91126           415.05440           390.41472          2032.53800           436.92579          1633.70222           306.31439           343.70392           822.06245          1607.76344           888.08343           454.66470          1431.28265           441.06766           395.25254          2141.91209          1796.19485          2571.27933           474.87553          1381.74891          1487.41833          1011.07011           297.04809          2575.15174           351.32844           493.52858           431.11213          2000.94956          1434.70831           468.44203          1842.42206          2268.70618           302.53705          1427.45775           525.05918          1385.74343           374.08795          1545.51993           601.50706           311.33252          1517.45886          1339.80716           451.45423           799.80825           491.23024          1351.74057          1790.24200          1024.19060           529.82989           533.21468          1407.64406          1543.98881          1365.70337           786.91712           496.23786           862.82330          2106.41958          1705.00397          1562.87104          2109.63150          1020.28882           592.22564          1114.85107          2342.78124           658.49384           851.99292           664.60000          1781.75258           984.07570           333.46782          2100.21601          1461.23482          1321.90238           288.78699          1609.84405           531.50839          1480.82880           474.92788          1381.18827           476.44547           453.98174          1844.54167          1027.26542          1546.94055          1564.46534           614.80310          1925.02862          1296.39116          3565.10689           546.66310          1203.62234          1954.73626          1158.04518          1088.29233          1369.83906          1247.81708          4035.34859           759.11902          3304.02142          1632.42331          1505.47299          1212.78342          1670.87374           770.63878          2118.42572           831.49483          1397.57126           450.23638          1904.25061          1395.09610           787.66125          1345.18552          2076.21358           751.78259           859.41245          1204.12845          1674.18774          1708.74164           820.56396          1849.48896           837.91747           295.13245          1923.69967          3771.40361          1068.55301           369.90275          1547.71928           681.27571          1052.10114          1862.76966           426.94088           510.05907          2060.43891          2671.26683          1281.42966           399.76218           668.76626           727.67592          1342.14140          1162.20565          1035.88336          1608.76171           703.56190          1559.68791           676.54966          1051.51443          2468.37856          1840.46407           640.39426           365.19807           552.84264          1313.12756           696.31189          1250.72916          3512.69253          1308.83963           324.11776           406.58133          1296.33700          1230.15047           847.98758           359.27131          3086.66103          1492.86469           332.27105          3192.86271          2148.91617           447.52530          1455.57697          1299.25591          1056.77523          1215.91522          1064.63939           463.50460          1634.99429          1531.25679          1550.48254          1308.33077           602.73070          1762.34213           485.67758          1229.82497           494.28300           456.24972           631.18948          1770.59734          1110.35254           844.26319           477.02803           356.54304          1757.82313          1165.07119          4792.04214          5431.92472          3988.11092          2105.43523          1970.88321          1979.58371          3316.29934          5144.72648           586.39821          4142.46502           338.84068          1080.66963          1664.14923           531.30358          3435.64974          5558.30048          1355.63516           426.03913          1986.31383          2819.50585           747.80757           762.08845          1405.87719          4836.62567          1150.34650          2396.99195          1001.90626           494.81751          1751.16888          1521.18636           409.14963          3593.57531           502.55135          1390.96685          5373.83658          4545.26146          1713.82125          6368.19732           331.72261           802.98117           452.35370          1838.16657          2683.14473          1638.16835          2660.17216          1784.71930          2684.52340           781.06112          1699.78858          1266.76163          1733.02153          7666.78248          4159.91737           913.48381          5170.13026          2964.37517           793.95996           682.96848          5710.08202          2884.60815          4981.04903          6077.46181          1441.76402           801.64207           620.27578           455.61461           794.21419          4099.75113          1515.42735           996.92335          1548.98499           369.99100          1122.43213          1661.63300          4398.08574           874.00434           781.78295           671.48192           666.72134          1638.93915          1459.90457           716.55201          3674.20491          3201.60688          3398.80808          3566.36262          6391.45080          4690.16140          2539.91106           544.21281          4356.96633          1093.13903          1512.99059           627.60369          1378.76178           779.83344           324.27965          7290.07102          4646.94773          1447.78171          1578.16162          2855.03087          2023.21078          3066.69986          2941.09827           869.65788          1051.26735           568.80874           774.59575           377.69843           517.35917           788.83694           524.64576          1946.84277          4724.26420          3247.84161          1408.75816          1961.92220          1316.56425          1579.15700          7473.12765          4896.88825          1801.92360           401.27376           548.36373          5589.65987           653.43550          3879.02900          3862.98254          1089.42927          2186.75615           618.46717           911.18151          1103.74541          2193.38989          2235.33697          2657.68157           562.43238           463.85040          1251.45870           385.50635           566.74425           398.57554          3983.11740          4392.00712           428.42011          3042.36279           774.98282          2707.55459          1336.65753           629.74355           597.98218           699.79539           582.71932          1870.00420           689.50157          1350.50807           649.60666          2445.54755          1727.43877          3354.70404          2639.86854           507.68771           581.70078           369.13289          3279.77225           718.25241           647.74964          1200.05331          2521.52796           714.65219           767.39367           505.22551          1186.51489           911.74508          1435.71798          1301.16993           560.32770           780.83741           736.40160          2651.86482          1757.98157          1205.46058          7275.47643          1081.46863           750.33686           852.17137          1227.62434          2255.33663          1477.89497          1530.38972          1377.37385          2944.66061           817.18569          6719.34334          1110.57148          2724.56558           709.17801          1255.18553          3638.04137          2949.74704           708.77949          1029.58906          3808.39464           483.36947           569.90792          1296.00357          2715.46143          6244.91537          1476.26832          6725.71467          1136.07201          1591.78049          1453.07162          1304.42300           421.50240           745.71025          2921.86484           671.85374          3567.26045           549.31526          2976.84213           745.54361           521.68296          1362.68961          1999.79501          3115.85224          4825.85564          2772.52247          1572.14544          1605.15777          1576.84579          5381.88686          6608.86568          1846.39352           883.71626          2820.32492           565.46969          1215.49072           783.76653          2534.01224          1244.25197          1041.97373           577.91677           560.87055          3284.59792           883.57213           707.65952          6024.43425          3656.66382          2349.50205          1370.91366          7561.12536           743.66962          2191.43797          2634.85130          2110.00284           966.27287          3236.22948          4981.52447          1632.76854           422.13723           722.03939           821.01837          1607.10742          1591.68157           603.71667           726.41979          6192.11228           685.85752          1049.20441          1929.04345          4535.66391          5725.41916           403.24271          1255.85270           845.20976          1009.39230          1718.27983           705.01839           779.41453          1432.86394           830.46096           520.80832           368.07749           833.25191          3034.66998           458.76089          2965.54674          1575.59274          1875.53840          1298.71196          1738.63711          1505.14693           384.69124          3173.30161          1382.97087          1812.26366          1651.95400          1953.10196          5872.01452           953.60103          5773.69625           629.45421           665.07409          1469.65740          1268.69498          6953.36944          2552.05576           790.90294          1739.45559          3837.26636          3955.08410           655.12829          4230.37408          1389.38294          2899.69934          1128.47720          3705.36411          3635.58954           483.97877          3783.90594          4039.12269          2355.36457          5756.21290           778.44518           798.83060          1254.72077          2158.50864           440.97541          7206.22060          3552.00298           675.67224          1651.20247          1528.70504          1866.10524           725.26612          1226.81121          9425.87054           651.71116          2300.78873          1317.31886           481.89971           717.80906          2382.59540          4758.79611          5636.75809          1569.84236          2411.58892          2827.67790          4471.15470           821.29630          1438.78270          1819.18967          1658.78301          5806.06932           572.95117          1250.91381          2754.84152           795.16807          3836.07246          2045.18729          6895.28421          1894.36896           928.73198          1201.37714           571.41679          5519.06324          7156.13671          1719.66530           300.38349           371.59476           750.89188           770.85210          5998.83793          1457.71781          2093.17044          3494.39725          2449.81054          5609.38641          6064.74269           355.89037           669.87498           750.91449          1175.51457           610.95804          4720.78310          3711.46562          1243.05086           630.16775          1065.75153          2091.54647          3384.35200          2290.54328          1953.08353           765.47511          3919.97770          6782.40544           470.43586           625.64444          1665.89828          7892.83149          1618.22297          3165.12114          5350.73559           667.73582          1660.92028          3934.60589           610.26036          1404.57630           894.67996          4504.98962           841.13254          1660.70387          2816.60682          4935.36601          3789.68034          6071.48230          4595.65283          4800.89605          1754.63975           737.53739          3285.32002          8212.47798           532.51261          2412.94042          2360.67887           312.00100          2435.05857          3194.78395          2383.51295           502.17442          4569.61527           765.74270          3888.07008          3921.33719          1815.78058           689.87707          2969.18809          3149.77346          4571.66835          5652.66826          5636.38078           672.00382           581.94384          1113.36320          4768.03522          1065.67248          2734.99524           706.70834           620.094