# vtk DataFile Version 3.0
Output from R2
ASCII
DATASET UNSTRUCTURED_GRID
POINTS       1414 double
     0.00000  2968.10000   0.
     1.54000  2966.60000   0.
     3.08000  2964.90000   0.
     4.61000  2964.10000   0.
     6.15000  2963.30000   0.
     7.69000  2962.60000   0.
     9.23000  2961.50000   0.
    10.76000  2960.70000   0.
    12.30000  2960.00000   0.
    13.84000  2959.30000   0.
    15.38000  2958.70000   0.
    16.91000  2958.10000   0.
    18.45000  2957.30000   0.
    19.99000  2956.60000   0.
    21.52000  2955.80000   0.
    23.06000  2955.00000   0.
    24.60000  2954.30000   0.
    26.14000  2953.50000   0.
    27.68000  2952.80000   0.
    29.21000  2951.90000   0.
    30.75000  2951.10000   0.
    32.29000  2950.20000   0.
    33.83000  2949.50000   0.
    35.36000  2948.70000   0.
    36.90000  2948.10000   0.
    38.44000  2947.30000   0.
    39.98000  2946.70000   0.
    41.51000  2946.10000   0.
    43.05000  2945.50000   0.
    44.59000  2945.10000   0.
    46.13000  2944.50000   0.
    47.66000  2944.10000   0.
    49.20000  2943.60000   0.
    50.74000  2943.40000   0.
    52.28000  2943.00000   0.
    53.81000  2942.50000   0.
    55.35000  2942.10000   0.
    56.89000  2941.60000   0.
    58.43000  2941.00000   0.
    59.96000  2940.60000   0.
    61.50000  2940.10000   0.
    63.04000  2939.50000   0.
    64.58000  2939.10000   0.
    66.11000  2939.20000   0.
    67.65000  2939.20000   0.
    69.19000  2939.10000   0.
    70.73000  2938.90000   0.
    72.26000  2938.60000   0.
    73.80000  2938.30000   0.
    75.34000  2938.50000   0.
    76.88000  2938.70000   0.
    78.41000  2938.60000   0.
    79.95000  2938.80000   0.
    81.49000  2938.90000   0.
    83.03000  2939.10000   0.
    84.56000  2939.10000   0.
     3.42000  2957.55000   0.
     8.97000  2954.51000   0.
    14.52000  2951.86000   0.
    20.07000  2949.38000   0.
    25.63000  2946.59000   0.
    31.18000  2943.67000   0.
    36.73000  2940.99000   0.
    42.28000  2938.62000   0.
    47.83000  2936.87000   0.
    53.39000  2935.46000   0.
    58.94000  2933.69000   0.
    64.49000  2931.95000   0.
    70.04000  2931.81000   0.
    75.60000  2931.36000   0.
    81.15000  2931.70000   0.
     0.51333  2967.60000   0.
     1.02667  2967.10000   0.
     2.05333  2966.03333   0.
     2.56667  2965.46667   0.
     3.59000  2964.63333   0.
     4.10000  2964.36667   0.
     5.12333  2963.83333   0.
     5.63667  2963.56667   0.
     6.66333  2963.06667   0.
     7.17667  2962.83333   0.
     8.20333  2962.23333   0.
     8.71667  2961.86667   0.
     9.74000  2961.23333   0.
    10.25000  2960.96667   0.
    11.27333  2960.46667   0.
    11.78667  2960.23333   0.
    12.81333  2959.76667   0.
    13.32667  2959.53333   0.
    14.35333  2959.10000   0.
    14.86667  2958.90000   0.
    15.89000  2958.50000   0.
    16.40000  2958.30000   0.
    17.42333  2957.83333   0.
    17.93667  2957.56667   0.
    18.96333  2957.06667   0.
    19.47667  2956.83333   0.
    20.50000  2956.33333   0.
    21.01000  2956.06667   0.
    22.03333  2955.53333   0.
    22.54667  2955.26667   0.
    23.57333  2954.76667   0.
    24.08667  2954.53333   0.
    25.11333  2954.03333   0.
    25.62667  2953.76667   0.
    26.65333  2953.26667   0.
    27.16667  2953.03333   0.
    28.19000  2952.50000   0.
    28.70000  2952.20000   0.
    29.72333  2951.63333   0.
    30.23667  2951.36667   0.
    31.26333  2950.80000   0.
    31.77667  2950.50000   0.
    32.80333  2949.96667   0.
    33.31667  2949.73333   0.
    34.34000  2949.23333   0.
    34.85000  2948.96667   0.
    35.87333  2948.50000   0.
    36.38667  2948.30000   0.
    37.41333  2947.83333   0.
    37.92667  2947.56667   0.
    38.95333  2947.10000   0.
    39.46667  2946.90000   0.
    40.49000  2946.50000   0.
    41.00000  2946.30000   0.
    42.02333  2945.90000   0.
    42.53667  2945.70000   0.
    43.56333  2945.36667   0.
    44.07667  2945.23333   0.
    45.10333  2944.90000   0.
    45.61667  2944.70000   0.
    46.64000  2944.36667   0.
    47.15000  2944.23333   0.
    48.17333  2943.93333   0.
    48.68667  2943.76667   0.
    49.71333  2943.53333   0.
    50.22667  2943.46667   0.
    51.25333  2943.26667   0.
    51.76667  2943.13333   0.
    52.79000  2942.83333   0.
    53.30000  2942.66667   0.
    54.32333  2942.36667   0.
    54.83667  2942.23333   0.
    55.86333  2941.93333   0.
    56.37667  2941.76667   0.
    57.40333  2941.40000   0.
    57.91667  2941.20000   0.
    58.94000  2940.86667   0.
    59.45000  2940.73333   0.
    60.47333  2940.43333   0.
    60.98667  2940.26667   0.
    62.01333  2939.90000   0.
    62.52667  2939.70000   0.
    63.55333  2939.36667   0.
    64.06667  2939.23333   0.
    65.34500  2939.15000   0.
    66.88000  2939.20000   0.
    68.42000  2939.15000   0.
    69.70333  2939.03333   0.
    70.21667  2938.96667   0.
    71.24000  2938.80000   0.
    71.75000  2938.70000   0.
    72.77333  2938.50000   0.
    73.28667  2938.40000   0.
    74.31333  2938.36667   0.
    74.82667  2938.43333   0.
    75.85333  2938.56667   0.
    76.36667  2938.63333   0.
    77.64500  2938.65000   0.
    78.92333  2938.66667   0.
    79.43667  2938.73333   0.
    80.72000  2938.85000   0.
    82.00333  2938.96667   0.
    82.51667  2939.03333   0.
    83.79500  2939.10000   0.
     0.08400  2959.57200   0.
     1.19600  2958.89800   0.
     2.30800  2958.22400   0.
     4.53000  2956.94200   0.
     5.64000  2956.33400   0.
     6.75000  2955.72600   0.
     7.86000  2955.11800   0.
    10.35750  2953.84750   0.
    11.74500  2953.18500   0.
    13.13250  2952.52250   0.
    15.90750  2951.24000   0.
    17.29500  2950.62000   0.
    18.68250  2950.00000   0.
    21.18200  2948.82200   0.
    22.29400  2948.26400   0.
    23.40600  2947.70600   0.
    24.51800  2947.14800   0.
    26.74000  2946.00600   0.
    27.85000  2945.42200   0.
    28.96000  2944.83800   0.
    30.07000  2944.25400   0.
    32.56750  2943.00000   0.
    33.95500  2942.33000   0.
    35.34250  2941.66000   0.
    38.11750  2940.39750   0.
    39.50500  2939.80500   0.
    40.89250  2939.21250   0.
    43.66750  2938.18250   0.
    45.05500  2937.74500   0.
    46.44250  2937.30750   0.
    49.22000  2936.51750   0.
    50.61000  2936.16500   0.
    52.00000  2935.81250   0.
    54.77750  2935.01750   0.
    56.16500  2934.57500   0.
    57.55250  2934.13250   0.
    60.32750  2933.25500   0.
    61.71500  2932.82000   0.
    63.10250  2932.38500   0.
    65.87750  2931.91500   0.
    67.26500  2931.88000   0.
    68.65250  2931.84500   0.
    71.43000  2931.69750   0.
    72.82000  2931.58500   0.
    74.21000  2931.47250   0.
    76.98750  2931.44500   0.
    78.37500  2931.53000   0.
    79.76250  2931.61500   0.
    82.53750  2931.75500   0.
    83.92500  2931.81000   0.
     6.60134  2937.05984   0.
    20.80435  2932.52560   0.
     3.78758  2946.36592   0.
    15.48523  2940.98228   0.
    29.30091  2934.50364   0.
    23.90594  2939.46561   0.
    40.87322  2931.62711   0.
     1.03219  2951.87344   0.
    10.83406  2946.32292   0.
    20.42668  2943.42459   0.
    48.80952  2930.83467   0.
    35.50309  2935.49258   0.
     7.54365  2949.73854   0.
    28.57967  2939.84283   0.
    15.90963  2945.83181   0.
    44.30452  2933.27820   0.
    -0.12722  2955.42655   0.
    24.47411  2943.04615   0.
     4.45051  2952.86019   0.
    40.01017  2935.22543   0.
    52.75593  2931.58993   0.
    13.75183  2934.27842   0.
    32.31862  2938.44653   0.
     0.40990  2931.04902   0.
    19.20708  2946.27332   0.
    57.19103  2930.55709   0.
    -0.97178  2947.27328   0.
    19.39705  2939.49643   0.
    11.08068  2950.12444   0.
    32.86215  2930.47012   0.
     7.41320  2941.82707   0.
    13.76382  2948.77946   0.
    27.17579  2942.79365   0.
     7.27112  2952.68663   0.
     2.71547  2954.94653   0.
    22.91159  2945.17994   0.
     2.00816  2941.86911   0.
    24.73355  2934.79062   0.
    47.86753  2934.00196   0.
    50.62083  2933.29089   0.
    60.15732  2930.28185   0.
    37.65425  2937.53830   0.
    44.64836  2929.77041   0.
    10.93416  2939.02064   0.
     4.26476  2949.76242   0.
    36.78915  2931.78219   0.
     7.36345  2946.13476   0.
    30.92470  2941.06806   0.
     6.19921  2931.10091   0.
    35.16618  2938.51604   0.
    16.36294  2929.87801   0.
    13.43632  2943.77014   0.
    42.64967  2935.50406   0.
    26.89596  2931.23775   0.
     1.59760  2936.73753   0.
    17.19200  2948.13905   0.
    -0.61497  2957.60981   0.
    26.49360  2937.36117   0.
     9.56799  2951.50953   0.
    17.55858  2943.77119   0.
    55.26825  2932.33039   0.
    22.03247  2936.46128   0.
    16.10828  2937.24515   0.
    22.48452  2941.40733   0.
    20.86327  2946.43955   0.
    29.71126  2937.35408   0.
    32.14062  2935.59882   0.
    45.26358  2935.44707   0.
    29.19256  2942.39482   0.
    25.22337  2944.48902   0.
    25.77440  2940.40763   0.
     5.12787  2951.33100   0.
     9.72036  2943.07255   0.
     0.63027  2944.64860   0.
     5.15669  2954.13690   0.
    33.80274  2940.56791   0.
     1.57076  2956.41210   0.
     9.31000  2947.97928   0.
     9.87726  2933.53233   0.
    53.60824  2932.85261   0.
    40.63972  2936.89193   0.
    13.47285  2946.23828   0.
    37.68088  2934.75035   0.
    46.32767  2931.88185   0.
    18.64740  2941.16071   0.
    13.09413  2950.32980   0.
    18.01744  2935.92389   0.
     0.55332  2948.73049   0.
     5.35766  2947.55011   0.
    42.44669  2933.52960   0.
    57.75733  2932.24094   0.
    23.68300  2931.83870   0.
    19.94397  2947.74183   0.
    61.81887  2931.15328   0.
[...]
POINT_DATA      1414
CELL_DATA      2568
SCALARS Resistivity(ohm.m) double 1
LOOKUP_TABLE default
          1119.39940          1763.64971          2240.50055          1061.22727           496.38816          2221.83192          1320.53020          1556.44234          1665.48730          2137.51138           812.78795          2123.99434           584.63030          2286.10239          2246.78178          1991.53961          1584.07310           482.30333           448.37065          2331.14907          1236.00458          2004.19599          1253.28923           635.81627          1863.30759           547.49607           284.94435          2203.18435          2189.78178          2272.22635           463.12455           558.61297          1677.69494           426.01164           389.60900          1698.06701           784.65110           908.66299          1199.02752          1544.06186          1828.75837           718.25356           428.72455          2287.50778           338.57033           454.90558          2917.23687           856.00568           616.17509          1003.81883          2580.06185          1852.57406          1054.87194          1584.32285          2319.23311           854.73062           368.00357          2246.17361           441.19379          1119.76697           509.14620          2115.98732           480.36096          1950.57502           286.80576          1574.99756          2125.64717          2072.04376           308.23653           638.86719           525.73651           851.09836          2038.23412           397.32782           353.46327          2891.97013          1449.61046           469.15282           364.13234          2751.24718          2619.45514          1511.45901           418.86510           461.28751          2036.55464           699.06129           345.10020          2088.10267           941.74899          1942.66848          1018.59243           356.70614          2229.89471           394.69714          1800.11883          1989.53663           528.09817          1253.20532          2157.87569           955.88079          1571.98637           508.71017           586.00261           740.45866           955.90076          1699.78825           485.24430           971.31788          2209.32214          1341.97038           423.76400          1187.68395          2490.04840          1856.81906          2016.43603          1303.23678          1112.80336          1515.60649           419.49881           333.35313          2266.31619          1404.09235          2964.52262           700.85282           506.83391          2070.14480          2380.81641          3189.05262          1902.44095          1459.65877          2089.38785          1038.12811          1204.44022          2241.24795           830.65274          2795.33078           417.40874          1667.56091           945.45271          1361.74459          1613.39420           487.05260           564.44598          1380.72567          1660.30180           528.65258           441.03254          1485.20800          1941.03508           575.76597          2312.87725          1905.09945           934.06951           727.24619          2277.07412           323.51347          1689.80740           428.91570          2194.00935          1260.94754          1211.37939           481.54545          2303.42917           465.05151          2234.39676           521.72605          1452.53232          1884.81694          1918.06140          1727.85694           754.71336           760.23404           640.28789           296.68928           399.51163          1001.25646           721.13640          3474.85335          2619.29642          1131.36840          2240.90793          1489.19644          2013.30791           686.95996           513.99740           892.50497           775.49513           586.66596           929.78104          2443.89354          1182.31528          2384.66627           530.54361          2614.38210           291.01700           464.41774          2554.82745          2114.07170          1215.23787           397.94507           322.16676           889.28986          1859.37095          1440.79944          1882.25522           982.27031          3769.05030          2340.71352           378.43101          2289.43662          1299.52643           559.61799           403.71117           354.99984           610.54116          1158.95305          2307.94010           523.64205          1235.17568           480.94572           946.35604          1355.54070          1091.27793           369.06025           611.26236           570.26290           408.18154           492.79861          1282.58037           330.97377          1123.64625          2116.61813          1416.02668          2909.39581          2349.21064          1738.19569          2397.01967          1501.21982          1432.86809          1364.09573          2552.23999           643.77427           874.55964           396.60288          2431.32501           301.09599          1893.24463           467.69869           473.42561          2188.28124           290.85033          2116.21573          1795.61460           605.11600          2011.78390           959.36985           633.89937           640.88028           671.31680          2852.02029           548.84676          2244.54111           486.66435           411.03643           441.85121          1705.39217           372.46050          2219.63024           809.58515          2343.03978          1064.08147          2191.54226          2390.44582          2205.03048           490.35715          1637.82288          2288.11466           493.46438           735.71080           663.51286           503.42674          1380.40845           309.49044           906.79194           957.69895          2222.36599           436.61227          2374.99984           602.32157           473.66311          1006.40134           340.46004          2282.92427           579.39510          1951.65182          2244.97091          1463.78818           492.74069           420.94546           573.91416          1072.78881           430.82222          2476.26901          2496.13298           416.41051          1816.64656          1297.04523          1531.57735          1934.92543           412.21500           605.78460           561.87930           306.24281          2228.26170           825.84192           365.70641           477.27206          1221.73047          2730.11376           496.80299          3219.75172           383.79853           889.92793           459.83984           490.23769          1167.85666           453.16942          1390.26479           973.05221          2810.78493          1795.22326          2181.20308           464.99251          1635.82548           345.24273           385.04922           528.55857           565.48148          3111.48033           594.27493          2138.63798           446.80807          2133.62941           453.36712           527.52678          1796.93621          1208.38576          1015.43126           457.72474          2171.44288           471.48771          2411.01029           693.75598           410.14635           433.53431          2073.08264           466.85689          1631.41914           322.99127           373.31369           882.87598          1516.27345           927.88090           477.14417          1339.20033           459.66792           392.31656          2245.44600          1836.70871          2611.34938           486.86727          1287.03338          1403.93113          1079.64938           305.93612          2609.47221           393.70141           518.54156           437.05505          2015.37457          1353.48957           466.11221          1779.15880          2368.75648           300.14984          1333.06888           539.33957          1416.24173           420.05780          1565.15214           616.11986           334.68795          1423.70350          1366.94964           449.36971           849.72014           512.02307          1412.95561          1727.27740          1066.87900           535.63121           553.16447          1346.47174          1450.56296          1312.27531           797.38504           562.01039           861.08112          2228.81491          1688.70149          1541.88475          2162.13811          1072.62379           642.08084          1174.72283          2457.34204           699.46503           825.38482           694.40957          1804.64780          1031.95377           368.71827          2184.30312          1469.72387          1289.23722           296.82478          1690.76739           542.25176          1392.31344           478.78844          1339.63404           479.75491           452.10918          1979.53221          1034.49987          1471.76844          1529.89225           640.41603          1883.10002          1355.60960          3480.73672           628.14218          1144.86708          2124.77821          1098.84628          1097.97746          1274.13738          1181.24733          4087.86490           769.33703          3251.80857          1596.45647          1567.86733          1275.30931          1757.85919           790.61972          2125.43724           830.60551          1412.21410           456.53835          1902.47455          1325.26412           791.91373          1398.52726          2197.81805           768.86880           912.48378          1255.23628          1763.62915          1708.66029           891.52250          1821.88767           857.47330           299.78392          1936.61683          3798.86377          1115.35352           419.34728          1581.34848           708.59359          1118.20517          2002.88261           465.61292           513.36081          2170.66067          2726.51088          1328.98689           395.64628           711.58389           751.42411          1269.27201          1206.57246           997.31069          1516.45221           718.81087          1465.32890           695.94771          1048.24296          2505.81274          1802.01312           672.77046           362.34350           566.18434          1293.92698           716.01068          1234.13387          3581.65496          1252.67191           352.50356           448.02357          1334.31067          1202.80384           872.69551           385.67333          3115.31305          1398.54820           358.99920          3252.26800          2247.08436           457.15006          1418.73367          1233.48367          1030.73519          1250.38774          1046.64845           491.66179          1678.00760          1435.82242          1456.07718          1366.95814           626.44667          1829.24258           490.65023          1290.85654           517.56707           464.36553           653.49812          1759.05861          1092.35674           838.89925           484.80534           379.01841          1730.36588          1136.89368          4513.04722          4894.92601          3542.88503          2078.58569          1923.92036          2453.38895          3288.22202          5149.88027           669.37722          4448.64776           350.06091          1051.84575          1501.21157           614.37127          3974.74271          5082.46711          1151.59634           406.63754          2004.43093          2720.73223           728.04365           767.91477          1214.78547          4347.41258          1138.58424          2306.11450          1140.77504           574.60733          1514.83964          1459.93961           444.02466          3363.28140           529.14482          1297.72519          5349.79680          3941.02794          1622.16072          5987.58656           328.44892           835.37028           495.06821          1846.73492          2733.17950          1504.93461          2726.80976          1735.60453          2627.56957           732.17292          1565.24294          1269.81277          1798.50399          9025.23911          3455.37978           927.62326          4736.16555          3477.56822           758.82362           674.01120          4989.98560          2746.24135          4339.40254          5879.45842          1347.95012           803.03110           734.25893           456.67178           779.27908          4007.50747          1460.78274           971.49386          1547.70450           367.19179          1040.04053          1606.64104          3799.99924           869.93351           882.66443           697.92515           670.03837          1514.98622          1362.96159           718.04057          3226.54559          2905.21908          3266.51586          3335.90154          5687.76723          5047.76608          2602.36632           497.51832          4454.04285          1128.15354          1375.17464           712.42348          1229.86378           852.32287           351.52006          7539.52218          4961.39740          1279.87201          1487.00709          2809.94408          2135.05957          3075.35822          3012.68219           859.70253          1086.33883           531.87013           922.43594           370.62137           530.37078           799.58598           528.70526          1966.42682          5009.79129          3178.47097          1329.07860          2471.70760          1288.20793          1543.78845          7720.35590          4975.35640          1898.61508           389.23478           654.89743          5210.80694           649.06648          3969.04098          4655.27607          1016.95614          2293.49197           649.07158          1043.05649          1033.12888          2301.68369          2309.09008          2473.32845           621.36596           442.22385          1135.92625           379.12376           570.15408           388.67015          3424.32413          5103.02201           471.69542          2910.21303           777.51568          2608.13544          1248.62892           792.56793           599.91352           614.61322           594.06742          1911.84867           693.84987          1293.36097           652.96260          2346.41113          1784.57575          3613.88227          2527.84226           513.35085           525.43653           363.62486          3058.06015           687.88662           686.73740          1152.32375          2436.18593           890.80466           782.54733           499.22295          1141.17491          1005.46187          1519.52428          1274.35342           574.34055           706.45252           664.32763          2665.11146          2085.16017          1134.60271          7354.87458          1021.60709           765.82927           842.89247          1335.20961          2235.31816          1480.79734          1483.13429          1419.83101          2731.81136           919.97619          7142.92744          1214.75177          2736.66860           713.33816          1136.97449          3719.22938          3305.04068           737.83121          1004.63854          3260.42275           484.09086           522.27120          1089.58151          2723.66102          6598.97962          1470.26109          6844.18173          1192.10151          1664.94985          1350.73255          1210.73810           442.54656           729.18431          2760.04178           709.31426          4133.53583           623.66520          2915.35963           841.20610           637.55841          1346.83292          2035.78799          2905.57271          4556.79290          2679.83894          1517.34159          1715.52905          1353.52408          6855.23950          7134.58958          1949.13822           928.84056          2646.50824           573.15685          1113.42876           796.91050          2538.26621          1139.12880           950.49656           592.55545           587.22610          3756.36470           915.52140           750.64059          5705.67445          3789.82088          2320.51349          1258.72467          8207.64914           742.63729          2415.18122          2758.27894          2095.31336          1009.85292          3062.14344          5758.36793          1539.62822           375.47973           663.48274           822.49491          1552.17304          1653.30465           613.63165           619.88519          6867.80134           663.63553          1163.05518          1877.99712          3793.72580          4737.16350           405.41361          1216.06657           819.01916           998.68915          1651.79770           707.18607           776.17680          1519.58156           787.18032           608.72843           364.96792           780.10334          2960.53412           507.77211          2944.45341          1495.55348          2309.04512          1239.25049          1698.18874          1452.36485           375.43978          3364.62415          1328.88699          1871.90329          1848.75761          2144.20659          4775.54748           929.30446          5276.86602           568.09930           760.03490          1476.20033          1165.90805          7250.66777          2634.38789           799.52815          1614.65299          3933.30405          3402.05164           616.72137          4900.33996          1316.72339          2682.58811          1058.64568          3659.05979          3379.55517           500.54973          3561.46476          4301.26001          2241.07658          4778.09747           821.45825           793.45695          1156.26429          2252.91957           467.88528          7508.66525          3882.19486           623.63318          1575.94242          1554.76500          1886.24133           814.16672          1119.45582         12788.07215           689.09834          2124.68822          1187.44224           468.39688           760.93793          2310.79617          4875.00691          5695.48405          1534.48106          3113.02698          2584.32783          4476.00398           723.40792          1295.89590          1977.00904          1749.06332          4877.30404           549.67518          1147.88812          2618.27999           782.09615          3955.21622          2271.00848          6608.26457          2033.90580          1080.99114          1074.13792           599.36024          4610.02140          7041.39709          1964.01659           385.73116           372.43583           746.89504           754.66201          6162.21803          1398.45016          2077.33246          3158.49950          2932.24782          5681.12057          4952.87647           368.86505           614.78058           744.65438          1208.68439           636.57292          4589.33002          3783.48846          1171.80581           825.21587           993.04035          2507.17443          3514.11284          2185.82801          1916.99515           785.83288          4660.94759          7134.90380           485.33990           656.74791          1669.09021          7375.11500          2057.58181          3112.41384          5227.75541           827.88956          1767.16627          4511.08223           574.10353          1380.54788          1038.13476          4977.20091           831.50588          1710.18484          3165.15043          5565.44077          3911.58037          5866.08636          4573.38285          3948.10343          1743.48306           765.56935          3658.72288          8649.81058           617.93695          2366.88476          2672.40541           308.30021          2226.69387          3270.34814          2379.71321           448.20226          4615.03142           859.68074          3284.11541          4165.30341          1747.14069           733.55781          2999.75108          3486.00529          4990.73689          6014.80349          5314.57288           655.76822           623.68645          1158.62879          5345.18028          1023.99868          2507.05630           825.43032           687.661