# vtk DataFile Version 3.0
Output from R2
ASCII
DATASET UNSTRUCTURED_GRID
POINTS       1414 double
     0.00000  2968.10000   0.
     1.54000  2966.60000   0.
     3.08000  2964.90000   0.
     4.61000  2964.10000   0.
     6.15000  2963.30000   0.
     7.69000  2962.60000   0.
     9.23000  2961.50000   0.
    10.76000  2960.70000   0.
    12.30000  2960.00000   0.
    13.84000  2959.30000   0.
    15.38000  2958.70000   0.
    16.91000  2958.10000   0.
    18.45000  2957.30000   0.
    19.99000  2956.60000   0.
    21.52000  2955.80000   0.
    23.06000  2955.00000   0.
    24.60000  2954.30000   0.
    26.14000  2953.50000   0.
    27.68000  2952.80000   0.
    29.21000  2951.90000   0.
    30.75000  2951.10000   0.
    32.29000  2950.20000   0.
    33.83000  2949.50000   0.
    35.36000  2948.70000   0.
    36.90000  2948.10000   0.
    38.44000  2947.30000   0.
    39.98000  2946.70000   0.
    41.51000  2946.10000   0.
    43.05000  2945.50000   0.
    44.59000  2945.10000   0.
    46.13000  2944.50000   0.
    47.66000  2944.10000   0.
    49.20000  2943.60000   0.
    50.74000  2943.40000   0.
    52.28000  2943.00000   0.
    53.81000  2942.50000   0.
    55.35000  2942.10000   0.
    56.89000  2941.60000   0.
    58.43000  2941.00000   0.
    59.96000  2940.60000   0.
    61.50000  2940.10000   0.
    63.04000  2939.50000   0.
    64.58000  2939.10000   0.
    66.11000  2939.20000   0.
    67.65000  2939.20000   0.
    69.19000  2939.10000   0.
    70.73000  2938.90000   0.
    72.26000  2938.60000   0.
    73.80000  2938.30000   0.
    75.34000  2938.50000   0.
    76.88000  2938.70000   0.
    78.41000  2938.60000   0.
    79.95000  2938.80000   0.
    81.49000  2938.90000   0.
    83.03000  2939.10000   0.
    84.56000  2939.10000   0.
     3.42000  2957.55000   0.
     8.97000  2954.51000   0.
    14.52000  2951.86000   0.
    20.07000  2949.38000   0.
    25.63000  2946.59000   0.
    31.18000  2943.67000   0.
    36.73000  2940.99000   0.
    42.28000  2938.62000   0.
    47.83000  2936.87000   0.
    53.39000  2935.46000   0.
    58.94000  2933.69000   0.
    64.49000  2931.95000   0.
    70.04000  2931.81000   0.
    75.60000  2931.36000   0.
    81.15000  2931.70000   0.
     0.51333  2967.60000   0.
     1.02667  2967.10000   0.
     2.05333  2966.03333   0.
     2.56667  2965.46667   0.
     3.59000  2964.63333   0.
     4.10000  2964.36667   0.
     5.12333  2963.83333   0.
     5.63667  2963.56667   0.
     6.66333  2963.06667   0.
     7.17667  2962.83333   0.
     8.20333  2962.23333   0.
     8.71667  2961.86667   0.
     9.74000  2961.23333   0.
    10.25000  2960.96667   0.
    11.27333  2960.46667   0.
    11.78667  2960.23333   0.
    12.81333  2959.76667   0.
    13.32667  2959.53333   0.
    14.35333  2959.10000   0.
    14.86667  2958.90000   0.
    15.89000  2958.50000   0.
    16.40000  2958.30000   0.
    17.42333  2957.83333   0.
    17.93667  2957.56667   0.
    18.96333  2957.06667   0.
    19.47667  2956.83333   0.
    20.50000  2956.33333   0.
    21.01000  2956.06667   0.
    22.03333  2955.53333   0.
    22.54667  2955.26667   0.
    23.57333  2954.76667   0.
    24.08667  2954.53333   0.
    25.11333  2954.03333   0.
    25.62667  2953.76667   0.
    26.65333  2953.26667   0.
    27.16667  2953.03333   0.
    28.19000  2952.50000   0.
    28.70000  2952.20000   0.
    29.72333  2951.63333   0.
    30.23667  2951.36667   0.
    31.26333  2950.80000   0.
    31.77667  2950.50000   0.
    32.80333  2949.96667   0.
    33.31667  2949.73333   0.
    34.34000  2949.23333   0.
    34.85000  2948.96667   0.
    35.87333  2948.50000   0.
    36.38667  2948.30000   0.
    37.41333  2947.83333   0.
    37.92667  2947.56667   0.
    38.95333  2947.10000   0.
    39.46667  2946.90000   0.
    40.49000  2946.50000   0.
    41.00000  2946.30000   0.
    42.02333  2945.90000   0.
    42.53667  2945.70000   0.
    43.56333  2945.36667   0.
    44.07667  2945.23333   0.
    45.10333  2944.90000   0.
    45.61667  2944.70000   0.
    46.64000  2944.36667   0.
    47.15000  2944.23333   0.
    48.17333  2943.93333   0.
    48.68667  2943.76667   0.
    49.71333  2943.53333   0.
    50.22667  2943.46667   0.
    51.25333  2943.26667   0.
    51.76667  2943.13333   0.
    52.79000  2942.83333   0.
    53.30000  2942.66667   0.
    54.32333  2942.36667   0.
    54.83667  2942.23333   0.
    55.86333  2941.93333   0.
    56.37667  2941.76667   0.
    57.40333  2941.40000   0.
    57.91667  2941.20000   0.
    58.94000  2940.86667   0.
    59.45000  2940.73333   0.
    60.47333  2940.43333   0.
    60.98667  2940.26667   0.
    62.01333  2939.90000   0.
    62.52667  2939.70000   0.
    63.55333  2939.36667   0.
    64.06667  2939.23333   0.
    65.34500  2939.15000   0.
    66.88000  2939.20000   0.
    68.42000  2939.15000   0.
    69.70333  2939.03333   0.
    70.21667  2938.96667   0.
    71.24000  2938.80000   0.
    71.75000  2938.70000   0.
    72.77333  2938.50000   0.
    73.28667  2938.40000   0.
    74.31333  2938.36667   0.
    74.82667  2938.43333   0.
    75.85333  2938.56667   0.
    76.36667  2938.63333   0.
    77.64500  2938.65000   0.
    78.92333  2938.66667   0.
    79.43667  2938.73333   0.
    80.72000  2938.85000   0.
    82.00333  2938.96667   0.
    82.51667  2939.03333   0.
    83.79500  2939.10000   0.
     0.08400  2959.57200   0.
     1.19600  2958.89800   0.
     2.30800  2958.22400   0.
     4.53000  2956.94200   0.
     5.64000  2956.33400   0.
     6.75000  2955.72600   0.
     7.86000  2955.11800   0.
    10.35750  2953.84750   0.
    11.74500  2953.18500   0.
    13.13250  2952.52250   0.
    15.90750  2951.24000   0.
    17.29500  2950.62000   0.
    18.68250  2950.00000   0.
    21.18200  2948.82200   0.
    22.29400  2948.26400   0.
    23.40600  2947.70600   0.
    24.51800  2947.14800   0.
    26.74000  2946.00600   0.
    27.85000  2945.42200   0.
    28.96000  2944.83800   0.
    30.07000  2944.25400   0.
    32.56750  2943.00000   0.
    33.95500  2942.33000   0.
    35.34250  2941.66000   0.
    38.11750  2940.39750   0.
    39.50500  2939.80500   0.
    40.89250  2939.21250   0.
    43.66750  2938.18250   0.
    45.05500  2937.74500   0.
    46.44250  2937.30750   0.
    49.22000  2936.51750   0.
    50.61000  2936.16500   0.
    52.00000  2935.81250   0.
    54.77750  2935.01750   0.
    56.16500  2934.57500   0.
    57.55250  2934.13250   0.
    60.32750  2933.25500   0.
    61.71500  2932.82000   0.
    63.10250  2932.38500   0.
    65.87750  2931.91500   0.
    67.26500  2931.88000   0.
    68.65250  2931.84500   0.
    71.43000  2931.69750   0.
    72.82000  2931.58500   0.
    74.21000  2931.47250   0.
    76.98750  2931.44500   0.
    78.37500  2931.53000   0.
    79.76250  2931.61500   0.
    82.53750  2931.75500   0.
    83.92500  2931.81000   0.
     6.60134  2937.05984   0.
    20.80435  2932.52560   0.
     3.78758  2946.36592   0.
    15.48523  2940.98228   0.
    29.30091  2934.50364   0.
    23.90594  2939.46561   0.
    40.87322  2931.62711   0.
     1.03219  2951.87344   0.
    10.83406  2946.32292   0.
    20.42668  2943.42459   0.
    48.80952  2930.83467   0.
    35.50309  2935.49258   0.
     7.54365  2949.73854   0.
    28.57967  2939.84283   0.
    15.90963  2945.83181   0.
    44.30452  2933.27820   0.
    -0.12722  2955.42655   0.
    24.47411  2943.04615   0.
     4.45051  2952.86019   0.
    40.01017  2935.22543   0.
    52.75593  2931.58993   0.
    13.75183  2934.27842   0.
    32.31862  2938.44653   0.
     0.40990  2931.04902   0.
    19.20708  2946.27332   0.
    57.19103  2930.55709   0.
    -0.97178  2947.27328   0.
    19.39705  2939.49643   0.
    11.08068  2950.12444   0.
    32.86215  2930.47012   0.
     7.41320  2941.82707   0.
    13.76382  2948.77946   0.
    27.17579  2942.79365   0.
     7.27112  2952.68663   0.
     2.71547  2954.94653   0.
    22.91159  2945.17994   0.
     2.00816  2941.86911   0.
    24.73355  2934.79062   0.
    47.86753  2934.00196   0.
    50.62083  2933.29089   0.
    60.15732  2930.28185   0.
    37.65425  2937.53830   0.
    44.64836  2929.77041   0.
    10.93416  2939.02064   0.
     4.26476  2949.76242   0.
    36.78915  2931.78219   0.
     7.36345  2946.13476   0.
    30.92470  2941.06806   0.
     6.19921  2931.10091   0.
    35.16618  2938.51604   0.
    16.36294  2929.87801   0.
    13.43632  2943.77014   0.
    42.64967  2935.50406   0.
    26.89596  2931.23775   0.
     1.59760  2936.73753   0.
    17.19200  2948.13905   0.
    -0.61497  2957.60981   0.
    26.49360  2937.36117   0.
     9.56799  2951.50953   0.
    17.55858  2943.77119   0.
    55.26825  2932.33039   0.
    22.03247  2936.46128   0.
    16.10828  2937.24515   0.
    22.48452  2941.40733   0.
    20.86327  2946.43955   0.
    29.71126  2937.35408   0.
    32.14062  2935.59882   0.
    45.26358  2935.44707   0.
    29.19256  2942.39482   0.
    25.22337  2944.48902   0.
    25.77440  2940.40763   0.
     5.12787  2951.33100   0.
     9.72036  2943.07255   0.
     0.63027  2944.64860   0.
     5.15669  2954.13690   0.
    33.80274  2940.56791   0.
     1.57076  2956.41210   0.
     9.31000  2947.97928   0.
     9.87726  2933.53233   0.
    53.60824  2932.85261   0.
    40.63972  2936.89193   0.
    13.47285  2946.23828   0.
    37.68088  2934.75035   0.
    46.32767  2931.88185   0.
    18.64740  2941.16071   0.
    13.09413  2950.32980   0.
    18.01744  2935.92389   0.
     0.55332  2948.73049   0.
     5.35766  2947.55011   0.
    42.44669  2933.52960   0.
    57.75733  2932.24094   0.
    23.68300  2931.83870   0.
    19.94397  2947.74183   0.
    61.81887  2931.15328   0.
[...]
POINT_DATA      1414
CELL_DATA      2568
SCALARS Resistivity(ohm.m) double 1
LOOKUP_TABLE default
          1066.63476          1612.39818          2070.56479          1021.90684           487.54878          2128.46494          1355.33118          1565.64148          1517.44155          1990.38375           836.20235          1997.83371           616.76322          2431.39720          2355.78408          1934.42317          1427.79163           456.80012           479.43406          2394.71860          1276.80104          1886.35931          1134.74730           637.85997          1748.79883           545.24849           267.55116          2125.68279          2198.29385          2106.66759           486.77028           548.87501          1522.68458           401.04856           409.25417          1741.60978           819.27237           918.01905          1090.70970          1588.07694          1708.83888           748.77881           479.62935          2375.69452           363.78204           428.54310          3234.14069           874.26665           650.27526          1043.17070          2896.78888          1743.54193          1054.49124          1428.96272          2305.60549           872.70269           396.16530          2093.55285           476.17739          1105.44921           510.46164          2140.94257           458.98905          1862.52305           274.81191          1420.17680          2060.09341          1920.97337           316.51159           689.42545           516.69674           885.21184          2011.58145           433.52746           347.99164          3072.60863          1328.72788           444.32466           352.39179          3091.11817          2957.92991          1510.12655           458.48079           439.99550          2009.59147           744.81983           368.78084          2053.44530           976.87311          1789.20908          1005.16988           390.14634          2101.45276           389.03003          1865.09985          1941.90598           526.03391          1211.62854          2209.08970           954.38969          1423.73681           517.89665           611.55756           767.07219           948.76158          1557.38435           479.00393           978.33429          2227.24401          1285.33375           421.74101          1218.06499          2628.04459          1706.47455          1967.68925          1162.09600          1143.90552          1358.87826           469.12480           350.35511          2262.54541          1279.22830          3228.33445           725.31112           497.43189          2000.35046          2477.36229          3400.21657          1775.10942          1483.74708          1965.45134           998.72761          1086.15097          2355.09913           849.11952          2939.07522           411.51829          1520.38594           944.44395          1213.03030          1456.92752           491.22090           592.36710          1406.73037          1506.95222           545.03849           467.61651          1339.97468          1845.66189           582.96159          2166.71108          1819.36636           942.24479           762.07033          2364.99773           314.22283          1655.33288           401.43282          2232.25795          1129.92523          1187.14958           493.71050          2327.89041           458.95960          2084.77425           527.91810          1487.23682          1890.06154          1821.57560          1584.03341           786.19387           781.67696           669.50965           296.96715           441.24514          1023.98895           761.00657          3565.71172          2745.70716          1102.74942          2256.16446          1462.70717          1891.21779           715.13453           520.91767           903.06255           809.07197           622.94763           953.67773          2661.51688          1072.87318          2591.96403           581.41131          2922.86696           286.83412           512.81757          2861.36211          1972.09896          1135.26951           444.22728           308.75654           920.25662          1721.64997          1286.57860          1859.94574           968.18924          3803.59281          2256.48602           420.68617          2147.59232          1168.49195           579.55158           448.75465           374.32718           616.50904          1089.03919          2434.18572           508.61938          1160.95458           509.46831           977.74797          1284.86947          1065.49023           385.59310           632.01911           622.86686           399.82858           544.55639          1145.55039           329.60988          1140.63779          2110.46941          1281.22775          3025.42625          2503.52649          1672.36132          2609.53370          1455.35424          1349.63548          1232.36076          2809.84428           670.00734           888.77771           437.64596          2677.57864           291.87489          1743.02223           465.07918           456.99398          2038.62767           275.93178          2060.22464          1695.01921           650.46372          1909.29077           962.24296           671.70164           682.02479           694.25642          2946.97021           570.66918          2094.08161           472.28063           458.62145           472.18927          1613.10926           397.13217          2090.65868           837.66426          2231.82549          1080.40706          2088.20511          2452.97733          2176.43812           469.83050          1483.63292          2174.65061           463.25669           770.96955           699.58286           470.25919          1229.51110           307.29450           915.99784           972.85909          2064.68316           484.33143          2522.37274           624.52279           468.33576          1032.70763           342.47424          2420.90017           633.99129          1841.04756          2227.16822          1360.29137           513.21492           467.45853           617.21342          1110.55361           465.08325          2731.75998          2680.39826           392.38208          1700.04866          1161.17070          1376.19892          1853.14089           405.02223           656.39152           586.82670           314.76565          2140.60939           854.23265           375.55225           463.21574          1229.91625          2816.20485           481.70363          3339.28832           406.95673           882.57231           455.08883           529.45908          1071.96792           466.85802          1238.10314           956.93143          3041.22013          1641.66907          2074.54675           518.55149          1538.63529           359.59528           423.72799           573.43672           582.74700          3269.19019           601.13432          2151.37181           437.16856          2033.60503           434.30133           549.38701          1674.12491          1165.88231          1010.43618           474.57991          2148.66273           457.51697          2589.64047           733.02067           416.84873           477.54944          2034.71874           477.61693          1514.73283           341.22185           413.82529           911.13175          1359.24457           941.70855           530.19943          1195.75457           509.46022           403.14114          2188.81673          1715.37543          2705.34105           453.97730          1149.23512          1257.87492          1104.95177           300.68403          2838.25800           427.25469           494.44932           412.66433          1960.72605          1216.24678           452.24871          1651.69403          2574.43275           282.84342          1188.46477           552.43519          1373.12693           462.09340          1484.78356           669.40786           356.36972          1269.11432          1404.31736           442.21553           874.15094           567.11355          1419.14422          1587.69941          1070.76583           550.22963           609.12512          1229.38356          1295.69443          1208.40275           822.32313           566.25181           879.07976          2161.69991          1546.69631          1425.64175          2212.89862          1082.60722           644.17920          1212.28399          2668.46683           735.78528           819.99424           719.86422          1673.04477          1041.95696           406.58875          2209.84306          1395.17760          1207.81698           296.21976          1694.66081           557.75626          1243.60266           462.06836          1241.52220           460.55999           441.54854          2032.07769          1024.61607          1321.78034          1403.16613           671.36358          1787.38520          1373.37358          3587.59680           632.62298          1068.09015          2191.22521          1030.92643          1080.69878          1137.64201          1090.13689          4083.01389           799.51108          3414.21380          1456.34444          1547.13375          1294.81365          1739.88598           812.11948          2146.07405           854.30591          1353.68133           429.31631          1772.03143          1203.78166           821.34903          1385.95887          2062.26807           794.68204           934.05258          1251.51311          1782.36627          1577.33743           926.52884          1681.75649           872.96297           286.50831          1800.96920          3827.52769          1118.05709           456.34903          1513.78532           732.08119          1160.43524          2021.85450           508.49054           503.98723          2026.05117          3083.97482          1315.26330           397.03396           747.65164           774.38439          1155.50597          1200.36760           970.10453          1359.58808           753.03707          1309.10985           728.45391          1031.78845          2572.67956          1667.37767           705.71094           361.90477           586.98011          1223.70967           744.89149          1175.94019          3633.27086          1157.75597           384.47971           487.80020          1309.45588          1142.32283           886.63214           428.43541          3221.97248          1247.23260           394.51081          3331.59627          2332.96788           426.29943          1310.49413          1133.19364          1005.07926          1231.72353          1022.72687           546.03787          1602.60632          1280.51486          1299.79955          1368.45829           663.76332          1743.47657           461.53300          1301.07805           572.99632           434.03147           686.69676          1608.94924          1059.61821           861.31756           453.51230           418.49080          1575.87159          1088.17340          4264.59647          5103.29271          3316.52625          2085.87537          1958.84600          2574.05757          3594.45092          5368.17815           664.49331          4422.97265           381.12568          1047.68176          1379.10614           655.18920          3846.24566          5485.03203          1101.80977           412.12459          2033.86588          2828.87499           702.73024           801.12883          1198.67782          4204.43851          1223.90746          2320.56601          1189.43316           616.65942          1379.73240          1552.37681           476.07763          3500.66668           506.83881          1347.26871          5380.52917          3764.94464          1614.79314          6095.35806           306.16713           850.00466           499.65696          1986.53783          3061.73505          1537.67998          3045.37886          1775.03824          2714.50181           689.81841          1477.27778          1314.94592          1854.73155          8835.31174          3320.04436           928.81893          4551.13342          3791.91314           758.69817           618.00027          5364.88452          2642.73955          4134.34141          5723.45334          1416.38884           827.88679           736.56390           487.34255           780.69053          4338.24956          1530.09696           973.09631          1612.88078           350.99134          1013.42188          1568.85353          3836.03919           933.54605           905.14297           734.90274           687.64002          1523.39870          1411.38226           757.54788          2994.63071          2697.57758          3489.74894          3149.71217          5338.53477          5483.75897          2674.88819           503.90680          4454.62033          1198.15159          1387.90904           754.36695          1250.54581           863.46055           373.03631          7453.37101          5046.55046          1273.12682          1521.33242          3035.74111          2114.23572          2880.50028          3014.04602           874.87026          1022.71868           539.84435           977.61160           368.39830           492.78970           802.33671           544.22841          2036.32207          5550.82164          3204.51654          1358.78929          2612.80076          1261.51620          1627.96998          7381.54074          4872.77746          1868.06535           383.95107           674.80954          5579.78500           669.58300          3722.59319          4597.03588           992.11651          2149.64472           685.77277          1055.13945          1004.45111          2233.04216          2220.40096          2450.96930           652.94922           454.54260          1093.06719           346.59801           527.43742           409.18725          3232.28167          5171.69191           496.66264          2798.88695           813.14634          2596.86671          1169.46372           839.92512           610.65269           616.37828           626.86440          2039.36132           717.26426          1252.43363           671.78553          2496.02594          1908.70273          4120.66358          2138.98137           544.12854           517.32170           339.26098          2899.91983           711.98471           721.10790          1127.34493          2341.87127           952.54409           753.49950           448.83040          1124.05519          1012.74647          1609.36412          1320.64677           608.26659           688.33362           617.86105          2864.71286          2336.69414          1161.84227          7279.99856           997.33790           788.35185           860.46146          1323.48225          2438.76611          1529.74331          1352.00769          1471.97396          2585.52217           949.19756          7323.88514          1309.27041          3002.07089           719.51362          1099.78142          3940.15534          3198.45712           748.44325          1019.61970          3047.20052           482.53226           497.25318          1051.10991          2489.04009          6695.84774          1459.61599          6536.81708          1269.14028          1610.49295          1374.55212          1137.30649           434.46027           732.61120          2784.33037           745.15153          4037.89368           653.54870          3084.05784           821.51473           686.92913          1412.09566          2008.11979          2906.37254          4563.29127          2634.76008          1428.48652          1817.52674          1211.49607          6975.27187          6964.84569          2094.35734           980.61846          2543.94313           606.94591          1070.19023           777.85657          2623.61898          1086.44866           941.83023           559.52283           618.20960          3710.70769           973.05959           726.15120          5930.13492          3899.11977          2294.32029          1276.49055          9418.59457           692.98353          2422.71183          3043.02946          2046.02723          1067.25102          2959.79991          5931.83998          1489.26871           374.33380           627.58331           840.51122          1667.00187          1767.46300           648.24127           608.34872          7421.38440           678.41980          1276.65820          1781.68599          3596.47040          5011.38965           430.19716          1191.87474           815.33634           992.40440          1759.27642           717.13097           809.02385          1618.46742           780.65901           634.80594           373.75501           799.26457          3217.51508           522.61366          3272.34647          1456.91420          2228.20952          1153.31315          1759.94625          1507.46049           380.63697          3144.01656          1386.85418          2022.49120          1817.91196          2116.49230          4974.18867           895.60388          5003.40230           530.53986           747.03580          1514.02145          1102.33372          6965.82462          2945.33042           782.00718          1570.24654          4043.86607          3259.22718           542.70893          5352.56943          1333.12591          2593.35018          1059.61604          3647.07773          3453.99433           472.89420          3412.20713          4146.37834          2203.93219          4751.77577           792.83364           830.97269          1095.77963          2084.76915           481.99636          8434.00747          4387.55156           559.83918          1624.85320          1580.28835          2002.35734           804.30408          1078.39689         13697.65672           722.99322          2154.30720          1219.22017           461.59076           787.84358          2153.31193          5186.78625          6182.49130          1571.46120          3038.32442          2420.83330          4415.47327           707.75511          1255.05365          2039.43105          1840.53727          4928.43787           569.68282          1090.97114          2660.10094           787.50773          3803.82366          2273.35677          6226.27891          2214.94939          1208.07153          1058.31975           623.21999          4605.35028          6653.15954          2285.44839           353.93895           358.70841           797.34025           785.46245          5946.66640          1322.36576          2058.52723          2962.66665          3128.48307          5567.05973          4935.96328           356.95568           576.66344           747.43884          1255.29735           617.37057          4565.74127          3737.78956          1204.55608           897.21250           978.21374          2408.91939          3479.10761          2228.49939          1845.55285           834.57038          4503.95174          7698.79381           481.15294           650.42532          1797.14630          7124.94515          2225.42989          2721.40786          5267.21529           877.59333          1829.33329          4468.71179           560.79722          1420.33945          1073.26168          5064.14572           864.63943          1797.64378          3045.82541          5648.47146          4373.78770          5581.16895          4468.82389          3956.66884          1692.00293           778.17354          3691.51556          9756.60580           652.73994          2217.53357          2652.60227           280.64844          2292.40540          3468.90766          2343.71912           421.72463          4617.91868           930.44579          3108.77406          4454.31270          1708.85774           743.80244          2867.70650          3744.09816          5226.82569          5902.57214          5071.09049           587.52449           660.14190          1139.67761          5876.93411          1063.16525          2440.31678           882.77733           722.211