# vtk DataFile Version 3.0
Output from R2
ASCII
DATASET UNSTRUCTURED_GRID
POINTS       1414 double
     0.00000  2968.10000   0.
     1.54000  2966.60000   0.
     3.08000  2964.90000   0.
     4.61000  2964.10000   0.
     6.15000  2963.30000   0.
     7.69000  2962.60000   0.
     9.23000  2961.50000   0.
    10.76000  2960.70000   0.
    12.30000  2960.00000   0.
    13.84000  2959.30000   0.
    15.38000  2958.70000   0.
    16.91000  2958.10000   0.
    18.45000  2957.30000   0.
    19.99000  2956.60000   0.
    21.52000  2955.80000   0.
    23.06000  2955.00000   0.
    24.60000  2954.30000   0.
    26.14000  2953.50000   0.
    27.68000  2952.80000   0.
    29.21000  2951.90000   0.
    30.75000  2951.10000   0.
    32.29000  2950.20000   0.
    33.83000  2949.50000   0.
    35.36000  2948.70000   0.
    36.90000  2948.10000   0.
    38.44000  2947.30000   0.
    39.98000  2946.70000   0.
    41.51000  2946.10000   0.
    43.05000  2945.50000   0.
    44.59000  2945.10000   0.
    46.13000  2944.50000   0.
    47.66000  2944.10000   0.
    49.20000  2943.60000   0.
    50.74000  2943.40000   0.
    52.28000  2943.00000   0.
    53.81000  2942.50000   0.
    55.35000  2942.10000   0.
    56.89000  2941.60000   0.
    58.43000  2941.00000   0.
    59.96000  2940.60000   0.
    61.50000  2940.10000   0.
    63.04000  2939.50000   0.
    64.58000  2939.10000   0.
    66.11000  2939.20000   0.
    67.65000  2939.20000   0.
    69.19000  2939.10000   0.
    70.73000  2938.90000   0.
    72.26000  2938.60000   0.
    73.80000  2938.30000   0.
    75.34000  2938.50000   0.
    76.88000  2938.70000   0.
    78.41000  2938.60000   0.
    79.95000  2938.80000   0.
    81.49000  2938.90000   0.
    83.03000  2939.10000   0.
    84.56000  2939.10000   0.
     3.42000  2957.55000   0.
     8.97000  2954.51000   0.
    14.52000  2951.86000   0.
    20.07000  2949.38000   0.
    25.63000  2946.59000   0.
    31.18000  2943.67000   0.
    36.73000  2940.99000   0.
    42.28000  2938.62000   0.
    47.83000  2936.87000   0.
    53.39000  2935.46000   0.
    58.94000  2933.69000   0.
    64.49000  2931.95000   0.
    70.04000  2931.81000   0.
    75.60000  2931.36000   0.
    81.15000  2931.70000   0.
     0.51333  2967.60000   0.
     1.02667  2967.10000   0.
     2.05333  2966.03333   0.
     2.56667  2965.46667   0.
     3.59000  2964.63333   0.
     4.10000  2964.36667   0.
     5.12333  2963.83333   0.
     5.63667  2963.56667   0.
     6.66333  2963.06667   0.
     7.17667  2962.83333   0.
     8.20333  2962.23333   0.
     8.71667  2961.86667   0.
     9.74000  2961.23333   0.
    10.25000  2960.96667   0.
    11.27333  2960.46667   0.
    11.78667  2960.23333   0.
    12.81333  2959.76667   0.
    13.32667  2959.53333   0.
    14.35333  2959.10000   0.
    14.86667  2958.90000   0.
    15.89000  2958.50000   0.
    16.40000  2958.30000   0.
    17.42333  2957.83333   0.
    17.93667  2957.56667   0.
    18.96333  2957.06667   0.
    19.47667  2956.83333   0.
    20.50000  2956.33333   0.
    21.01000  2956.06667   0.
    22.03333  2955.53333   0.
    22.54667  2955.26667   0.
    23.57333  2954.76667   0.
    24.08667  2954.53333   0.
    25.11333  2954.03333   0.
    25.62667  2953.76667   0.
    26.65333  2953.26667   0.
    27.16667  2953.03333   0.
    28.19000  2952.50000   0.
    28.70000  2952.20000   0.
    29.72333  2951.63333   0.
    30.23667  2951.36667   0.
    31.26333  2950.80000   0.
    31.77667  2950.50000   0.
    32.80333  2949.96667   0.
    33.31667  2949.73333   0.
    34.34000  2949.23333   0.
    34.85000  2948.96667   0.
    35.87333  2948.50000   0.
    36.38667  2948.30000   0.
    37.41333  2947.83333   0.
    37.92667  2947.56667   0.
    38.95333  2947.10000   0.
    39.46667  2946.90000   0.
    40.49000  2946.50000   0.
    41.00000  2946.30000   0.
    42.02333  2945.90000   0.
    42.53667  2945.70000   0.
    43.56333  2945.36667   0.
    44.07667  2945.23333   0.
    45.10333  2944.90000   0.
    45.61667  2944.70000   0.
    46.64000  2944.36667   0.
    47.15000  2944.23333   0.
    48.17333  2943.93333   0.
    48.68667  2943.76667   0.
    49.71333  2943.53333   0.
    50.22667  2943.46667   0.
    51.25333  2943.26667   0.
    51.76667  2943.13333   0.
    52.79000  2942.83333   0.
    53.30000  2942.66667   0.
    54.32333  2942.36667   0.
    54.83667  2942.23333   0.
    55.86333  2941.93333   0.
    56.37667  2941.76667   0.
    57.40333  2941.40000   0.
    57.91667  2941.20000   0.
    58.94000  2940.86667   0.
    59.45000  2940.73333   0.
    60.47333  2940.43333   0.
    60.98667  2940.26667   0.
    62.01333  2939.90000   0.
    62.52667  2939.70000   0.
    63.55333  2939.36667   0.
    64.06667  2939.23333   0.
    65.34500  2939.15000   0.
    66.88000  2939.20000   0.
    68.42000  2939.15000   0.
    69.70333  2939.03333   0.
    70.21667  2938.96667   0.
    71.24000  2938.80000   0.
    71.75000  2938.70000   0.
    72.77333  2938.50000   0.
    73.28667  2938.40000   0.
    74.31333  2938.36667   0.
    74.82667  2938.43333   0.
    75.85333  2938.56667   0.
    76.36667  2938.63333   0.
    77.64500  2938.65000   0.
    78.92333  2938.66667   0.
    79.43667  2938.73333   0.
    80.72000  2938.85000   0.
    82.00333  2938.96667   0.
    82.51667  2939.03333   0.
    83.79500  2939.10000   0.
     0.08400  2959.57200   0.
     1.19600  2958.89800   0.
     2.30800  2958.22400   0.
     4.53000  2956.94200   0.
     5.64000  2956.33400   0.
     6.75000  2955.72600   0.
     7.86000  2955.11800   0.
    10.35750  2953.84750   0.
    11.74500  2953.18500   0.
    13.13250  2952.52250   0.
    15.90750  2951.24000   0.
    17.29500  2950.62000   0.
    18.68250  2950.00000   0.
    21.18200  2948.82200   0.
    22.29400  2948.26400   0.
    23.40600  2947.70600   0.
    24.51800  2947.14800   0.
    26.74000  2946.00600   0.
    27.85000  2945.42200   0.
    28.96000  2944.83800   0.
    30.07000  2944.25400   0.
    32.56750  2943.00000   0.
    33.95500  2942.33000   0.
    35.34250  2941.66000   0.
    38.11750  2940.39750   0.
    39.50500  2939.80500   0.
    40.89250  2939.21250   0.
    43.66750  2938.18250   0.
    45.05500  2937.74500   0.
    46.44250  2937.30750   0.
    49.22000  2936.51750   0.
    50.61000  2936.16500   0.
    52.00000  2935.81250   0.
    54.77750  2935.01750   0.
    56.16500  2934.57500   0.
    57.55250  2934.13250   0.
    60.32750  2933.25500   0.
    61.71500  2932.82000   0.
    63.10250  2932.38500   0.
    65.87750  2931.91500   0.
    67.26500  2931.88000   0.
    68.65250  2931.84500   0.
    71.43000  2931.69750   0.
    72.82000  2931.58500   0.
    74.21000  2931.47250   0.
    76.98750  2931.44500   0.
    78.37500  2931.53000   0.
    79.76250  2931.61500   0.
    82.53750  2931.75500   0.
    83.92500  2931.81000   0.
     6.60134  2937.05984   0.
    20.80435  2932.52560   0.
     3.78758  2946.36592   0.
    15.48523  2940.98228   0.
    29.30091  2934.50364   0.
    23.90594  2939.46561   0.
    40.87322  2931.62711   0.
     1.03219  2951.87344   0.
    10.83406  2946.32292   0.
    20.42668  2943.42459   0.
    48.80952  2930.83467   0.
    35.50309  2935.49258   0.
     7.54365  2949.73854   0.
    28.57967  2939.84283   0.
    15.90963  2945.83181   0.
    44.30452  2933.27820   0.
    -0.12722  2955.42655   0.
    24.47411  2943.04615   0.
     4.45051  2952.86019   0.
    40.01017  2935.22543   0.
    52.75593  2931.58993   0.
    13.75183  2934.27842   0.
    32.31862  2938.44653   0.
     0.40990  2931.04902   0.
    19.20708  2946.27332   0.
    57.19103  2930.55709   0.
    -0.97178  2947.27328   0.
    19.39705  2939.49643   0.
    11.08068  2950.12444   0.
    32.86215  2930.47012   0.
     7.41320  2941.82707   0.
    13.76382  2948.77946   0.
    27.17579  2942.79365   0.
     7.27112  2952.68663   0.
     2.71547  2954.94653   0.
    22.91159  2945.17994   0.
     2.00816  2941.86911   0.
    24.73355  2934.79062   0.
    47.86753  2934.00196   0.
    50.62083  2933.29089   0.
    60.15732  2930.28185   0.
    37.65425  2937.53830   0.
    44.64836  2929.77041   0.
    10.93416  2939.02064   0.
     4.26476  2949.76242   0.
    36.78915  2931.78219   0.
     7.36345  2946.13476   0.
    30.92470  2941.06806   0.
     6.19921  2931.10091   0.
    35.16618  2938.51604   0.
    16.36294  2929.87801   0.
    13.43632  2943.77014   0.
    42.64967  2935.50406   0.
    26.89596  2931.23775   0.
     1.59760  2936.73753   0.
    17.19200  2948.13905   0.
    -0.61497  2957.60981   0.
    26.49360  2937.36117   0.
     9.56799  2951.50953   0.
    17.55858  2943.77119   0.
    55.26825  2932.33039   0.
    22.03247  2936.46128   0.
    16.10828  2937.24515   0.
    22.48452  2941.40733   0.
    20.86327  2946.43955   0.
    29.71126  2937.35408   0.
    32.14062  2935.59882   0.
    45.26358  2935.44707   0.
    29.19256  2942.39482   0.
    25.22337  2944.48902   0.
    25.77440  2940.40763   0.
     5.12787  2951.33100   0.
     9.72036  2943.07255   0.
     0.63027  2944.64860   0.
     5.15669  2954.13690   0.
    33.80274  2940.56791   0.
     1.57076  2956.41210   0.
     9.31000  2947.97928   0.
     9.87726  2933.53233   0.
    53.60824  2932.85261   0.
    40.63972  2936.89193   0.
    13.47285  2946.23828   0.
    37.68088  2934.75035   0.
    46.32767  2931.88185   0.
    18.64740  2941.16071   0.
    13.09413  2950.32980   0.
    18.01744  2935.92389   0.
     0.55332  2948.73049   0.
     5.35766  2947.55011   0.
    42.44669  2933.52960   0.
    57.75733  2932.24094   0.
    23.68300  2931.83870   0.
    19.94397  2947.74183   0.
    61.81887  2931.15328   0.
[...]
POINT_DATA      1414
CELL_DATA      2568
SCALARS Resistivity(ohm.m) double 1
LOOKUP_TABLE default
          1113.02126          1701.62451          2288.24485          1069.21183           542.41598          2232.74749          1288.64256          1501.98313          1619.39357          2076.24838           857.56462          2049.81357           644.37075          2278.78550          2253.49385          1908.54041          1521.45705           474.56484           455.23160          2337.21736          1196.64918          1916.22250          1198.37802           608.28768          1826.87225           502.64288           251.76768          2197.29952          2223.60891          2283.41064           479.80064           506.29866          1613.15322           403.37773           379.01635          1675.51222           760.35400           967.83797          1152.05200          1542.24203          1805.49338           762.39301           438.29711          2322.48420           326.22179           419.19298          2859.16422           904.55497           670.78609           939.94807          2502.60921          1822.67542          1067.91672          1525.43882          2243.30622           923.06318           359.50009          2253.71941           427.95440          1122.06652           572.99009          2109.90638           472.51696          1862.26134           256.13901          1519.25039          2100.45375          2013.21740           287.17543           697.18393           478.49115           816.95386          2041.83332           395.20683           334.33803          2959.42890          1379.12033           470.88210           344.85371          2689.84515          2547.34197          1450.21525           409.75719           424.28399          2024.30970           764.69876           332.66151          2107.24013           889.78349          1873.77603          1049.97825           348.97168          2250.58283           383.61892          1786.12622          1981.39541           568.04043          1226.74282          2162.50620          1002.24101          1494.94516           566.68822           659.79146           795.88900           985.21428          1656.88561           518.45079          1002.95001          2137.96315          1298.26827           411.71721          1133.80025          2546.15137          1775.81660          2022.50837          1240.13999          1059.04625          1447.65450           426.31938           317.42330          2286.05788          1336.87354          2958.25926           784.23423           542.30449          2042.34539          2432.76841          3196.03232          1812.41918          1421.48373          2050.11449          1047.41092          1152.37526          2227.05035           893.87342          2884.52058           408.02679          1618.30857           992.62395          1296.71629          1542.55632           527.40133           629.84183          1339.53125          1600.21974           590.91847           434.53569          1412.03094          1908.27045           543.97772          2288.93637          1886.26658           980.18402           741.87602          2256.01909           298.68900          1612.92996           413.59667          2221.70861          1201.48661          1193.90814           513.48288          2355.72000           445.79675          2217.68050           591.97971          1433.60347          1822.14937          1909.32311          1676.90341           781.11459           835.07011           719.92027           272.06155           392.67889           981.37134           792.05434          3595.80277          2699.40588          1133.99794          2233.50270          1422.69814          1970.89266           770.69197           580.14461           950.49418           847.70879           651.72132           926.55547          2442.62000          1135.61683          2371.05598           570.21146          2574.50798           264.06808           483.89062          2505.85189          2068.73425          1182.71547           397.67831           295.49667           863.41861          1772.17443          1372.42513          1809.21083          1015.67287          3926.34844          2277.02804           374.75728          2250.98859          1237.72896           632.58212           401.13910           341.61631           584.94200          1137.71000          2327.97085           473.87220          1202.83647           509.67808           908.49148          1306.63032          1103.53118           355.63673           693.32892           617.82783           401.33795           520.58540          1221.18318           307.27503          1086.84953          2044.51457          1346.44522          3024.53562          2319.67869          1652.23748          2355.26719          1432.53278          1371.12244          1298.19976          2544.68934           714.15074           934.01938           396.83308          2398.35364           273.50949          1829.93384           469.65463           472.03485          2144.56719           259.41754          2038.70654          1704.28320           666.37020          1974.85630          1004.35602           675.95211           710.29843           754.30821          2974.18801           620.38181          2212.10211           507.71766           416.26000           427.42337          1616.82816           362.73399          2261.88052           877.11598          2293.93393          1041.09405          2117.66334          2453.77560          2193.60678           445.29184          1563.16752          2230.49376           449.89015           733.65884           700.52834           461.54497          1313.89625           284.97403           963.98226           975.19126          2285.73604           446.94932          2350.47936           680.41422           489.92848           972.11022           320.14771          2258.98814           625.42013          1912.63068          2254.31722          1394.50717           530.75220           426.97616           630.98052          1012.23615           423.05319          2420.20537          2526.79456           417.25620          1788.52165          1233.96238          1461.04729          1927.98087           407.35015           662.64402           633.01926           285.23169          2263.55005           842.94368           349.72479           486.49593          1178.56254          2841.43848           452.93286          3332.29617           371.27331           899.09338           467.83404           520.35310          1129.57376           437.34511          1324.21444          1004.13766          2837.05761          1727.98659          2161.44387           483.22284          1551.30595           327.97288           377.43630           570.44526           643.18096          3192.43217           566.15410          2120.49578           443.50070          2106.10077           477.54272           583.41124          1762.49180          1192.26533          1065.99127           435.68522          2153.20582           479.26198          2428.53008           767.51593           396.60897           440.00884          2050.24301           482.69044          1546.69900           306.53582           369.38949           879.39561          1454.27937           961.53923           496.42068          1273.32287           473.15952           378.50652          2289.04644          1744.68327          2703.95150           455.36380          1224.47382          1334.69296          1037.48385           279.27286          2627.00510           384.02932           467.15164           443.72855          1993.54389          1287.06203           460.83921          1747.71614          2335.75191           268.22445          1267.56908           615.10773          1358.54735           418.27888          1488.02851           667.63786           320.16214          1356.57710          1354.03793           455.14476           875.74647           539.17958          1356.11967          1681.89019          1068.26828           611.63562           591.22275          1285.89112          1386.67194          1259.27516           873.45528           524.13899           927.48044          2248.15409          1605.30444          1464.60232          2148.93008          1062.20892           613.25745          1122.01631          2411.09904           718.73318           818.18186           764.06708          1714.90303          1035.33785           361.37055          2164.39449          1403.76737          1246.98538           271.61961          1631.70335           619.64266          1323.89331           507.57454          1285.97791           497.38140           455.04056          1934.31437          1062.27521          1400.06469          1453.23018           698.56292          1865.42746          1304.68946          3565.12947           603.19942          1120.15859          2067.92958          1083.13243          1109.74022          1212.64359          1145.28714          4297.57061           846.13800          3310.87572          1516.76067          1498.22574          1221.92827          1686.26814           866.76084          2138.51123           899.97045          1355.79117           453.92095          1854.20683          1264.66809           865.42610          1341.13582          2173.77585           848.61616           926.48833          1215.35721          1715.02987          1621.66643           840.51426          1769.40284           923.28194           269.33445          1885.06197          3985.05625          1103.46702           410.63766          1503.11327           786.48608          1057.85557          1942.00652           485.42226           558.94555          2132.42588          2640.29147          1280.76485           380.65566           714.82691           831.32321          1215.55755          1179.34272          1017.93498          1455.63398           796.25792          1401.63670           775.87944          1072.18057          2587.93962          1754.90352           720.51029           344.14517           643.67383          1254.85500           797.83212          1208.02788          3764.10772          1209.06346           342.77580           458.89475          1288.75594          1181.33638           931.71128           384.96073          3245.12294          1333.60899           351.82116          3409.81203          2225.61032           435.65073          1353.75356          1188.80243          1051.81561          1219.96131          1067.28452           517.31285          1593.16008          1370.59418          1390.80467          1311.22591           697.80668          1738.74146           472.49931          1239.72587           547.62897           448.70779           731.16369          1678.79317          1101.50330           905.03571           463.27343           376.32728          1655.28806          1130.62742          4191.04957          4770.11010          3248.02807          1870.16170          1865.96485          2324.45239          4138.85828          5047.87715           671.43892          4605.37880           398.63619          1036.89475          1335.53812           628.33602          4265.75495          5717.90019          1305.99195           427.25412          1844.12540          2532.70374           732.87984           821.96466          1381.84641          4340.39466          1326.36163          2237.45452          1189.44643           589.21162          1467.86632          1557.99288           462.73594          3205.86503           479.39074          1384.60224          5428.62833          3813.29583          1584.59164          5653.95525           293.47487           791.05377           462.93399          1918.49260          2610.42841          1608.47726          3019.49560          1690.50346          2488.76334           716.08243          1423.20781          1268.99691          1953.06790          7239.50116          3410.31560           893.24709          4825.31438          4144.27710           782.38595           603.88090          5679.70759          2649.07703          4294.51490          5447.55251          1448.78732           778.94936           710.64460           495.92704           756.89810          4962.38441          1482.85510           954.14541          1598.57619           339.55384          1049.54118          1651.50850          3722.91595          1027.34969           918.17374           696.77619           677.96044          1639.18493          1434.83498           853.56048          2928.96010          2841.04331          3165.80210          3122.87512          5825.63279          5206.52370          2455.11004           511.58036          4153.60853          1131.60279          1491.97603           695.03853          1376.05806           873.68052           378.33354          7172.79534          5008.33704          1432.13137          1514.77315          2633.01473          2162.04849          2795.71105          2998.15800           837.87282          1093.00011           534.23523           981.16927           390.34374           474.52865           807.37589           617.25841          1867.51947          5614.26310          3443.33096          1403.36889          2530.58248          1295.72624          1596.63698          8013.76270          5223.49600          1853.60008           398.51916           639.80536          5923.80969           665.37252          3755.04421          4422.94322          1016.31467          2306.22879           668.69790          1077.69858          1024.35285          2181.15301          2249.93263          2747.70917           617.44251           469.98950          1155.46423           339.62181           543.64554           425.91929          3196.47798          5118.89443           472.16617          2848.43845           822.99323          2487.23413          1198.53575           820.47346           649.57835           612.78398           569.66807          1886.14824           758.67789          1406.32156           691.23864          2846.72121          1814.85805          4625.77110          2343.52855           546.16436           531.05677           327.80696          2869.60250           690.37007           713.71495          1177.64661          2606.93473           948.38627           779.85844           463.46568          1128.55004          1057.99888          1637.70248          1293.14399           561.00894           692.65215           646.82854          2538.87695          2309.21271          1173.46642          7754.60554          1006.96238           753.35597           849.41593          1397.98968          2451.49366          1511.78805          1496.76301          1495.36612          2581.24094           902.10567          6814.72202          1375.60464          2591.80183           698.91628          1167.98300          3857.72095          3274.24661           769.78949           983.95973          3016.07708           469.37539           529.91017          1250.71017          2537.20709          6523.24068          1487.61169          7134.04111          1252.47872          1551.77624          1463.40045          1170.35017           422.99305           739.37036          2548.19409           701.53929          4047.99404           620.40219          3171.24011           887.07766           671.06288          1265.87703          2100.93105          2662.00602          4647.65926          2596.06228          1454.30229          1562.86767          1274.63280          6581.93024          7390.98202          1948.28771           947.63097          2816.48861           556.99147          1120.40825           795.51487          2493.25332          1136.95354          1028.14885           540.42095           569.41557          3578.72252           923.57947           727.11614          6099.26621          4147.82238          2363.65024          1331.20436          9619.74226           726.86114          2438.60854          3312.83553          1854.52554          1029.23933          2894.55926          5819.60374          1666.08431           375.85187           656.53470           822.27865          1759.98735          1541.50171           588.45528           605.53882          7166.81697           682.54035          1264.86115          1703.51439          3723.86603          5549.80078           444.79142          1241.94414           805.99265           996.09596          1824.10049           676.05339           779.30147          1738.20134           794.72255           603.41266           401.46822           793.82954          2779.92169           485.05997          2805.71019          1591.35762          2212.94728          1296.66005          1603.47685          1541.43065           402.44845          3648.78268          1416.81673          1883.62086          1914.34243          1955.90010          5716.86920           955.14558          5416.88131           572.21762           731.14469          1409.76269          1145.98721          7536.40858          2539.45085           771.71198          1505.69720          4206.37786          3205.06648           566.58263          5491.66201          1379.77019          2764.46485          1010.09912          3888.48870          3613.28818           464.78947          3620.73826          4284.28919          2461.70605          5419.93947           815.48342           781.91825          1136.77131          2310.06027           462.88189          7923.55502          4239.62387           617.22998          1547.16283          1569.28557          1824.09019           804.26556          1134.81878         12284.25052           674.89642          2179.91505          1306.36775           455.53256           787.46616          2257.72241          4881.84030          6890.18730          1646.68266          2693.73533          2466.98970          4695.65020           680.89959          1349.51843          1910.48057          1931.76077          5388.43807           553.08208          1137.78350          2914.35578           756.23865          3374.37456          2217.47072          6865.95269          2455.76185          1257.63486          1184.42866           573.14780          5146.25322          7330.65326          2226.13694           362.37850           382.53654           760.25857           783.62078          6441.78596          1344.73825          1954.18426          2875.88555          2936.40569          5525.57850          5751.31423           342.58548           613.71505           718.83531          1176.12883           596.89523          4870.44948          3869.14549          1333.36586           884.35209          1012.52723          2372.75641          3693.59168          2124.57775          1754.96533           777.16774          4434.38313          7250.37741           456.29948           667.58254          1731.74363          7697.50521          2076.41879          2859.22589          5418.32640           872.79679          1877.76177          4709.74652           573.57356          1423.01041          1092.09612          5284.25897           826.27120          1732.71129          3334.88639          5904.21944          4859.26334          6108.70660          4668.01562          4257.32274          1776.31625           774.93803          3973.26825          9109.09100           623.41376          2193.41508          2609.29267           269.85340          2395.89226          3324.36588          2399.09189           406.50375          4858.04011           865.12222          3107.11576          3967.34307          1665.52742           758.42235          2625.09335          3278.49920          5370.81292          6281.64792          5502.00139           569.79041           628.79533          1098.12895          5256.45720          1053.18733          2629.40888           853.44434           731.867