# vtk DataFile Version 3.0
Output from R2
ASCII
DATASET UNSTRUCTURED_GRID
POINTS       1414 double
     0.00000  2968.10000   0.
     1.54000  2966.60000   0.
     3.08000  2964.90000   0.
     4.61000  2964.10000   0.
     6.15000  2963.30000   0.
     7.69000  2962.60000   0.
     9.23000  2961.50000   0.
    10.76000  2960.70000   0.
    12.30000  2960.00000   0.
    13.84000  2959.30000   0.
    15.38000  2958.70000   0.
    16.91000  2958.10000   0.
    18.45000  2957.30000   0.
    19.99000  2956.60000   0.
    21.52000  2955.80000   0.
    23.06000  2955.00000   0.
    24.60000  2954.30000   0.
    26.14000  2953.50000   0.
    27.68000  2952.80000   0.
    29.21000  2951.90000   0.
    30.75000  2951.10000   0.
    32.29000  2950.20000   0.
    33.83000  2949.50000   0.
    35.36000  2948.70000   0.
    36.90000  2948.10000   0.
    38.44000  2947.30000   0.
    39.98000  2946.70000   0.
    41.51000  2946.10000   0.
    43.05000  2945.50000   0.
    44.59000  2945.10000   0.
    46.13000  2944.50000   0.
    47.66000  2944.10000   0.
    49.20000  2943.60000   0.
    50.74000  2943.40000   0.
    52.28000  2943.00000   0.
    53.81000  2942.50000   0.
    55.35000  2942.10000   0.
    56.89000  2941.60000   0.
    58.43000  2941.00000   0.
    59.96000  2940.60000   0.
    61.50000  2940.10000   0.
    63.04000  2939.50000   0.
    64.58000  2939.10000   0.
    66.11000  2939.20000   0.
    67.65000  2939.20000   0.
    69.19000  2939.10000   0.
    70.73000  2938.90000   0.
    72.26000  2938.60000   0.
    73.80000  2938.30000   0.
    75.34000  2938.50000   0.
    76.88000  2938.70000   0.
    78.41000  2938.60000   0.
    79.95000  2938.80000   0.
    81.49000  2938.90000   0.
    83.03000  2939.10000   0.
    84.56000  2939.10000   0.
     3.42000  2957.55000   0.
     8.97000  2954.51000   0.
    14.52000  2951.86000   0.
    20.07000  2949.38000   0.
    25.63000  2946.59000   0.
    31.18000  2943.67000   0.
    36.73000  2940.99000   0.
    42.28000  2938.62000   0.
    47.83000  2936.87000   0.
    53.39000  2935.46000   0.
    58.94000  2933.69000   0.
    64.49000  2931.95000   0.
    70.04000  2931.81000   0.
    75.60000  2931.36000   0.
    81.15000  2931.70000   0.
     0.51333  2967.60000   0.
     1.02667  2967.10000   0.
     2.05333  2966.03333   0.
     2.56667  2965.46667   0.
     3.59000  2964.63333   0.
     4.10000  2964.36667   0.
     5.12333  2963.83333   0.
     5.63667  2963.56667   0.
     6.66333  2963.06667   0.
     7.17667  2962.83333   0.
     8.20333  2962.23333   0.
     8.71667  2961.86667   0.
     9.74000  2961.23333   0.
    10.25000  2960.96667   0.
    11.27333  2960.46667   0.
    11.78667  2960.23333   0.
    12.81333  2959.76667   0.
    13.32667  2959.53333   0.
    14.35333  2959.10000   0.
    14.86667  2958.90000   0.
    15.89000  2958.50000   0.
    16.40000  2958.30000   0.
    17.42333  2957.83333   0.
    17.93667  2957.56667   0.
    18.96333  2957.06667   0.
    19.47667  2956.83333   0.
    20.50000  2956.33333   0.
    21.01000  2956.06667   0.
    22.03333  2955.53333   0.
    22.54667  2955.26667   0.
    23.57333  2954.76667   0.
    24.08667  2954.53333   0.
    25.11333  2954.03333   0.
    25.62667  2953.76667   0.
    26.65333  2953.26667   0.
    27.16667  2953.03333   0.
    28.19000  2952.50000   0.
    28.70000  2952.20000   0.
    29.72333  2951.63333   0.
    30.23667  2951.36667   0.
    31.26333  2950.80000   0.
    31.77667  2950.50000   0.
    32.80333  2949.96667   0.
    33.31667  2949.73333   0.
    34.34000  2949.23333   0.
    34.85000  2948.96667   0.
    35.87333  2948.50000   0.
    36.38667  2948.30000   0.
    37.41333  2947.83333   0.
    37.92667  2947.56667   0.
    38.95333  2947.10000   0.
    39.46667  2946.90000   0.
    40.49000  2946.50000   0.
    41.00000  2946.30000   0.
    42.02333  2945.90000   0.
    42.53667  2945.70000   0.
    43.56333  2945.36667   0.
    44.07667  2945.23333   0.
    45.10333  2944.90000   0.
    45.61667  2944.70000   0.
    46.64000  2944.36667   0.
    47.15000  2944.23333   0.
    48.17333  2943.93333   0.
    48.68667  2943.76667   0.
    49.71333  2943.53333   0.
    50.22667  2943.46667   0.
    51.25333  2943.26667   0.
    51.76667  2943.13333   0.
    52.79000  2942.83333   0.
    53.30000  2942.66667   0.
    54.32333  2942.36667   0.
    54.83667  2942.23333   0.
    55.86333  2941.93333   0.
    56.37667  2941.76667   0.
    57.40333  2941.40000   0.
    57.91667  2941.20000   0.
    58.94000  2940.86667   0.
    59.45000  2940.73333   0.
    60.47333  2940.43333   0.
    60.98667  2940.26667   0.
    62.01333  2939.90000   0.
    62.52667  2939.70000   0.
    63.55333  2939.36667   0.
    64.06667  2939.23333   0.
    65.34500  2939.15000   0.
    66.88000  2939.20000   0.
    68.42000  2939.15000   0.
    69.70333  2939.03333   0.
    70.21667  2938.96667   0.
    71.24000  2938.80000   0.
    71.75000  2938.70000   0.
    72.77333  2938.50000   0.
    73.28667  2938.40000   0.
    74.31333  2938.36667   0.
    74.82667  2938.43333   0.
    75.85333  2938.56667   0.
    76.36667  2938.63333   0.
    77.64500  2938.65000   0.
    78.92333  2938.66667   0.
    79.43667  2938.73333   0.
    80.72000  2938.85000   0.
    82.00333  2938.96667   0.
    82.51667  2939.03333   0.
    83.79500  2939.10000   0.
     0.08400  2959.57200   0.
     1.19600  2958.89800   0.
     2.30800  2958.22400   0.
     4.53000  2956.94200   0.
     5.64000  2956.33400   0.
     6.75000  2955.72600   0.
     7.86000  2955.11800   0.
    10.35750  2953.84750   0.
    11.74500  2953.18500   0.
    13.13250  2952.52250   0.
    15.90750  2951.24000   0.
    17.29500  2950.62000   0.
    18.68250  2950.00000   0.
    21.18200  2948.82200   0.
    22.29400  2948.26400   0.
    23.40600  2947.70600   0.
    24.51800  2947.14800   0.
    26.74000  2946.00600   0.
    27.85000  2945.42200   0.
    28.96000  2944.83800   0.
    30.07000  2944.25400   0.
    32.56750  2943.00000   0.
    33.95500  2942.33000   0.
    35.34250  2941.66000   0.
    38.11750  2940.39750   0.
    39.50500  2939.80500   0.
    40.89250  2939.21250   0.
    43.66750  2938.18250   0.
    45.05500  2937.74500   0.
    46.44250  2937.30750   0.
    49.22000  2936.51750   0.
    50.61000  2936.16500   0.
    52.00000  2935.81250   0.
    54.77750  2935.01750   0.
    56.16500  2934.57500   0.
    57.55250  2934.13250   0.
    60.32750  2933.25500   0.
    61.71500  2932.82000   0.
    63.10250  2932.38500   0.
    65.87750  2931.91500   0.
    67.26500  2931.88000   0.
    68.65250  2931.84500   0.
    71.43000  2931.69750   0.
    72.82000  2931.58500   0.
    74.21000  2931.47250   0.
    76.98750  2931.44500   0.
    78.37500  2931.53000   0.
    79.76250  2931.61500   0.
    82.53750  2931.75500   0.
    83.92500  2931.81000   0.
     6.60134  2937.05984   0.
    20.80435  2932.52560   0.
     3.78758  2946.36592   0.
    15.48523  2940.98228   0.
    29.30091  2934.50364   0.
    23.90594  2939.46561   0.
    40.87322  2931.62711   0.
     1.03219  2951.87344   0.
    10.83406  2946.32292   0.
    20.42668  2943.42459   0.
    48.80952  2930.83467   0.
    35.50309  2935.49258   0.
     7.54365  2949.73854   0.
    28.57967  2939.84283   0.
    15.90963  2945.83181   0.
    44.30452  2933.27820   0.
    -0.12722  2955.42655   0.
    24.47411  2943.04615   0.
     4.45051  2952.86019   0.
    40.01017  2935.22543   0.
    52.75593  2931.58993   0.
    13.75183  2934.27842   0.
    32.31862  2938.44653   0.
     0.40990  2931.04902   0.
    19.20708  2946.27332   0.
    57.19103  2930.55709   0.
    -0.97178  2947.27328   0.
    19.39705  2939.49643   0.
    11.08068  2950.12444   0.
    32.86215  2930.47012   0.
     7.41320  2941.82707   0.
    13.76382  2948.77946   0.
    27.17579  2942.79365   0.
     7.27112  2952.68663   0.
     2.71547  2954.94653   0.
    22.91159  2945.17994   0.
     2.00816  2941.86911   0.
    24.73355  2934.79062   0.
    47.86753  2934.00196   0.
    50.62083  2933.29089   0.
    60.15732  2930.28185   0.
    37.65425  2937.53830   0.
    44.64836  2929.77041   0.
    10.93416  2939.02064   0.
     4.26476  2949.76242   0.
    36.78915  2931.78219   0.
     7.36345  2946.13476   0.
    30.92470  2941.06806   0.
     6.19921  2931.10091   0.
    35.16618  2938.51604   0.
    16.36294  2929.87801   0.
    13.43632  2943.77014   0.
    42.64967  2935.50406   0.
    26.89596  2931.23775   0.
     1.59760  2936.73753   0.
    17.19200  2948.13905   0.
    -0.61497  2957.60981   0.
    26.49360  2937.36117   0.
     9.56799  2951.50953   0.
    17.55858  2943.77119   0.
    55.26825  2932.33039   0.
    22.03247  2936.46128   0.
    16.10828  2937.24515   0.
    22.48452  2941.40733   0.
    20.86327  2946.43955   0.
    29.71126  2937.35408   0.
    32.14062  2935.59882   0.
    45.26358  2935.44707   0.
    29.19256  2942.39482   0.
    25.22337  2944.48902   0.
    25.77440  2940.40763   0.
     5.12787  2951.33100   0.
     9.72036  2943.07255   0.
     0.63027  2944.64860   0.
     5.15669  2954.13690   0.
    33.80274  2940.56791   0.
     1.57076  2956.41210   0.
     9.31000  2947.97928   0.
     9.87726  2933.53233   0.
    53.60824  2932.85261   0.
    40.63972  2936.89193   0.
    13.47285  2946.23828   0.
    37.68088  2934.75035   0.
    46.32767  2931.88185   0.
    18.64740  2941.16071   0.
    13.09413  2950.32980   0.
    18.01744  2935.92389   0.
     0.55332  2948.73049   0.
     5.35766  2947.55011   0.
    42.44669  2933.52960   0.
    57.75733  2932.24094   0.
    23.68300  2931.83870   0.
    19.94397  2947.74183   0.
    61.81887  2931.15328   0.
[...]
POINT_DATA      1414
CELL_DATA      2568
SCALARS Resistivity(ohm.m) double 1
LOOKUP_TABLE default
          1133.95927          1616.85651          2294.95759          1098.07830           496.69734          2241.29355          1338.62508          1588.67576          1486.68935          2035.96994           833.44379          2032.12015           616.79131          2334.98441          2278.72901          1952.99288          1413.63227           426.37428           455.46223          2407.16532          1224.56951          1920.55022          1146.57320           618.71929          1741.61386           551.18249           257.69938          2198.14773          2165.02900          2264.30509           474.81834           554.90520          1521.42501           410.59725           399.20266          1756.26901           752.60586          1012.82601          1105.06354          1617.94160          1684.26819           732.91218           484.55555          2313.11590           358.62590           434.49981          3019.78795           891.42424           645.78608           932.67718          2665.71207          1729.86361          1084.56324          1407.69727          2233.45648           974.66294           394.67354          2231.28220           415.37939          1150.87808           526.63113          2100.09405           422.49867          1894.26287           269.29935          1385.56842          2081.43716          1961.98677           307.91649           772.68091           520.36568           803.86241          1982.80570           438.46430           316.89326          2953.87527          1357.78361           421.38605           316.83398          2858.27327          2718.70379          1530.63382           410.04908           450.69843          1984.87012           844.14072           364.19295          2027.80002           878.03650          1818.23458          1093.23928           385.27689          2249.07950           353.56149          1853.90655          1918.85755           508.28236          1263.13724          2156.72691          1050.03882          1436.68139           535.97204           659.97736           766.05399           973.53635          1532.29100           480.71390          1011.15739          2157.01336          1335.35629           387.20984          1155.98320          2544.66699          1734.14415          1943.14506          1132.80974          1066.58012          1347.31771           461.10953           343.39607          2337.71659          1302.04552          3052.16946           781.70356           479.98830          2009.13082          2414.56899          3254.15041          1809.29863          1498.78347          2002.18310          1072.79744          1083.32012          2277.77293           888.61936          2850.68648           374.34683          1499.66999          1045.78373          1180.97342          1457.84538           497.38890           635.98344          1404.36143          1498.11934           571.63002           427.23359          1348.92630          1841.50199           601.64061          2258.43793          1801.05136           994.72550           723.35910          2327.38051           286.33804          1689.54464           401.98259          2187.58007          1120.67881          1229.93946           494.83458          2295.08011           421.44669          2182.46564           543.45690          1505.95593          1896.19086          1799.21252          1574.21992           755.00039           825.64953           733.41075           285.41132           403.57899           972.96714           862.61142          3466.52438          2670.83978          1169.35378          2279.61212          1491.19557          1913.26564           783.51848           539.96504          1011.00006           919.32940           678.99667           909.55574          2523.23367          1080.01241          2458.78992           620.54272          2716.94140           279.99127           516.96095          2654.86875          2018.83227          1183.88287           424.91657           278.94581           845.85947          1754.04894          1271.45772          1879.20367          1062.02945          3712.82524          2254.27126           404.94135          2214.46482          1170.97885           615.52995           417.62649           366.33464           627.50932          1143.05619          2350.45928           514.16931          1214.04529           512.16774           895.00028          1334.84994          1140.53788           373.26193           663.20269           681.16387           363.45388           567.66778          1114.45850           332.04081          1098.48837          2078.45463          1295.41578          2952.69803          2419.43725          1711.70225          2475.26616          1492.73923          1395.50674          1244.27551          2644.53520           681.00163           999.69319           442.61427          2517.28072           269.69570          1762.46626           443.72399           419.68248          2100.15500           256.87450          2063.39205          1734.14364           718.40181          1921.62395          1031.04187           661.20984           759.39982           735.09714          2894.67576           579.91271          2170.83895           447.79178           463.67918           415.47079          1654.12519           393.06727          2273.58662           950.80255          2269.40233          1043.62109          2109.14082          2408.45609          2213.01834           476.98310          1492.91918          2203.64852           461.12305           722.04026           680.44334           459.82280          1206.42329           288.63299           994.27854           968.08319          2301.77563           475.34472          2448.85463           643.78034           437.35531           964.20154           320.44837          2334.27036           697.95200          1846.84947          2297.93437          1399.23915           522.42767           477.88814           671.01571          1012.50541           419.44096          2556.85435          2566.60327           395.50926          1680.62999          1154.30088          1372.47723          1831.40349           368.34546           727.89462           595.02863           308.75552          2289.38713           817.73141           357.27612           451.36793          1209.84653          2770.76536           488.79700          3241.73341           389.20645           890.80213           422.15309           540.90561          1097.07019           420.38074          1209.31569          1048.76655          2892.25348          1654.31777          2138.40740           538.56512          1579.27926           352.59702           394.40258           607.42558           613.04662          3154.82425           619.98148          2126.22553           398.71882          2074.80715           431.42083           575.99224          1658.04724          1226.33562          1051.76399           416.93774          2161.74058           423.19183          2477.48369           825.03138           391.56848           457.30172          2025.65814           465.46356          1550.74719           334.53109           405.12035           858.25133          1332.31402           956.66084           556.97763          1183.84250           531.35526           383.34804          2326.98057          1750.93712          2652.47481           439.64204          1131.99671          1255.34850          1040.34019           300.92635          2693.40206           396.54298           497.64431           407.17789          1948.90880          1219.68215           412.84624          1628.81069          2444.07800           258.60899          1170.55218           575.95820          1410.09971           428.20311          1528.21843           745.72228           348.26841          1247.09365          1409.94150           406.57431           852.39951           606.43649          1424.02928          1571.94172          1080.26021           565.82876           663.82642          1254.65953          1258.29561          1242.87431           919.56845           578.73184           988.15722          2274.02332          1571.99438          1460.52775          2165.24185          1069.75235           615.66079          1139.41549          2527.67290           703.55169           813.54586           734.34924          1706.63114          1038.95994           387.07673          2189.70864          1440.29648          1256.95220           291.84508          1719.94468           576.00466          1233.28948           451.91418          1281.82800           440.71702           404.24765          1988.36318          1095.76729          1322.28517          1432.00418           669.11977          1767.97184          1364.37396          3482.28642           627.78765          1113.43534          2096.15858          1079.53550          1143.47814          1114.30360          1123.86230          3997.97950           900.62380          3290.09206          1478.53602          1576.88833          1264.03188          1767.86621           883.43077          2105.17099           965.75591          1398.80260           413.75146          1780.27653          1222.64860           930.30483          1401.75675          2137.55617           878.87635           909.60258          1253.21419          1800.96131          1608.94875           830.56260          1684.44310           942.23098           287.83454          1817.61785          3746.46231          1119.98824           412.57404          1555.10046           765.88948          1062.64036          1999.52355           507.73127           497.88989          2087.52486          2828.33164          1330.00350           367.36243           709.41752           832.73052          1175.68565          1210.34584          1052.54788          1327.68148           845.79180          1275.75804           810.92697          1110.57483          2531.76546          1662.49635           693.45149           334.09101           602.81470          1277.03127           823.89411          1234.37629          3567.41673          1195.57770           372.74174           472.18258          1336.33766          1203.41715           940.57790           426.72778          3144.79491          1210.02460           386.06130          3270.02175          2284.42221           415.64187          1347.04823          1163.72950          1090.92925          1258.40706          1106.98043           574.38253          1644.53890          1250.74591          1273.24308          1369.84899           733.15621          1780.63625           431.78438          1284.63985           613.52764           417.19983           759.45779          1631.37217          1136.71590           974.38382           430.46771           418.22184          1590.29918          1157.20147          4378.81125          5358.70334          3537.65856          1900.61715          2059.36715          2431.16086          4281.54921          5009.92536           697.44147          4662.03069           412.57894          1012.71262          1286.61811           675.76701          3965.72221          5955.17870          1304.10273           390.25732          1798.47633          2651.61468           710.65851           815.37328          1380.07841          4275.97039          1324.15113          2341.60466          1201.91899           644.64469          1428.45630          1564.54247           474.49516          3436.88267           457.01865          1426.09946          5291.38755          3963.08798          1615.72149          6262.72333           274.68821           830.56950           439.20833          1971.20355          2789.28046          1579.34971          3419.13150          1627.05114          2515.65044           719.13069          1358.69353          1285.73656          1784.84067          8815.40064          3566.40329           944.09836          4563.39740          3795.34224           749.48779           606.59870          5579.51467          2536.17333          4296.93035          5778.13846          1453.18531           794.77433           728.84394           486.80263           756.98994          5044.75246          1443.05693           941.25979          1648.38864           312.47671          1022.06743          1694.88226          4084.76302           984.16188           911.70674           722.22808           685.63093          1643.72149          1427.04145           805.03709          3214.93772          2624.84848          3349.74736          3215.25656          5399.40821          5388.81306          2506.95485           568.68925          4631.24053          1145.46958          1475.25152           739.95730          1380.71438           813.08608           382.95535          7240.92436          5140.06797          1430.26595          1469.83413          2808.47657          2204.45985          3008.38616          2982.67303           842.40384          1117.74934           536.88164          1009.97807           414.16915           451.38164           849.99841           572.01751          1813.63294          5511.89185          3281.32244          1402.82300          2444.02235          1346.45869          1672.14867          7022.83933          4748.29785          1863.55422           429.40253           649.38549          6028.72735           642.24367          3900.75602          4361.28857           990.57675          2358.47884           667.40661          1033.02796           995.26794          2248.08544          2359.15747          2585.64358           623.48249           523.40209          1116.29076           330.69543           587.27757           391.76073          3479.61992          5315.69383           497.59012          2706.92553           821.74521          2442.19874          1134.97091           848.32789           602.02157           671.71264           589.17137          1848.66435           724.60130          1245.43764           664.76907          2924.70865          1847.15770          4604.26903          2542.42862           578.23256           521.50419           308.64829          2910.77752           664.73458           720.04011          1272.47404          2545.45802           969.97486           760.49751           503.51956          1246.95320          1040.33677          1610.28618          1289.94653           569.06123           665.64715           635.92928          2629.60597          2065.30609          1202.43180          7242.18973           979.63687           835.75212           916.37925          1388.24970          2821.43704          1568.33692          1430.98702          1626.34572          2505.68996           898.63604          7684.55374          1413.31154          2743.48335           769.51180          1131.10880          4032.53097          3211.66093           717.89332          1090.59847          3310.23558           480.11128           480.59287          1252.43523          2758.22957          6496.56594          1396.43293          6277.35774          1280.66155          1655.66739          1479.26463          1112.44882           451.88962           786.95219          2678.04200           713.35016          4244.30577           636.56755          3238.83147           900.57722           670.29210          1339.06106          1905.55492          2860.62143          4508.78387          2511.98038          1354.58003          1513.27284          1213.89060          7249.12830          6644.74311          1958.49374           932.94456          2644.22927           571.93177          1081.81930           842.04252          2628.49255          1093.28467          1031.51226           525.27239           573.80828          3453.41869           977.79789           738.05748          5860.92528          4003.19097          2334.73455          1342.37912          9899.94846           782.47395          2443.67184          3272.25764          2029.77451          1097.15595          2872.50093          5818.58915          1644.43997           389.96179           636.17809           878.93615          1830.34495          1483.50031           616.60878           630.07738          7355.21407           727.76979          1261.69014          1844.49650          3849.84640          4708.11099           449.06570          1278.86000           802.08813          1049.23270          2053.85212           682.43828           842.16659          1544.32958           839.82217           640.13782           416.42052           843.14285          3009.29793           456.93349          3029.22383          1587.75956          2224.66614          1197.88967          1684.75372          1570.18929           432.01096          3837.98112          1414.63762          1876.11606          1832.66086          2189.57629          4439.40380           892.23257          5006.44728           524.79723           740.16606          1473.97455          1096.08516          6639.68821          2696.81171           841.63170          1514.53102          4031.21486          3521.51478           527.93063          5105.78103          1557.55879          2733.59438           983.74330          3561.65366          3662.39524           437.89698          3354.09178          4309.72112          2353.07259          4394.93785           794.34890           853.19631          1088.25542          2345.11045           473.09298          8065.95133          4950.14938           573.20818          1615.13571          1723.03873          1753.55367           799.61042          1096.99664         13784.53238           748.05322          2275.87902          1328.17638           480.61245           742.46473          2419.89759          4842.44670          6752.59011          1768.16281          2626.46434          2343.09094          4314.67045           723.35550          1357.09374          2061.03924          1797.24555          4724.91527           553.96994          1091.68414          2784.85704           758.71506          3546.41856          2222.65614          6091.50150          2510.32757          1275.86863          1202.62931           577.47052          4299.98806          6440.54323          2455.87460           315.80353           385.10236           785.76771           763.80899          5736.87376          1261.29349          2069.24949          3103.37469          2983.80062          5404.66788          4596.00188           369.59560           578.23735           720.57509          1189.79836           629.18916          4519.39788          3888.42175          1337.86150           907.71890           993.81326          2485.64336          3742.16763          2228.43268          1944.69436           829.11682          4853.90662          7277.43098           482.99456           588.05927          1739.39281          7197.44858          2150.51626          2755.16932          5251.08448           868.20194          1821.93064          4662.15792           556.91683          1462.91189          1077.10682          5183.29882           902.25440          1785.32853          3169.11900          5712.04165          4573.30004          5458.70826          4562.68766          3989.55522          1773.78316           732.33115          3727.45220          9415.72283           661.12131          2396.98760          2617.30914           268.26714          2411.32686          3398.29756          2569.39293           429.99214          4594.66954           917.34694          3381.35137          4016.41920          1777.80869           787.21245          2830.58684          3338.73410          5132.93021          5709.53639          5008.07911           562.21933           629.61378          1211.29434          5564.01609          1069.57843          2664.50541           865.50432           712.132