# vtk DataFile Version 3.0
Output from R2
ASCII
DATASET UNSTRUCTURED_GRID
POINTS       1414 double
     0.00000  2968.10000   0.
     1.54000  2966.60000   0.
     3.08000  2964.90000   0.
     4.61000  2964.10000   0.
     6.15000  2963.30000   0.
     7.69000  2962.60000   0.
     9.23000  2961.50000   0.
    10.76000  2960.70000   0.
    12.30000  2960.00000   0.
    13.84000  2959.30000   0.
    15.38000  2958.70000   0.
    16.91000  2958.10000   0.
    18.45000  2957.30000   0.
    19.99000  2956.60000   0.
    21.52000  2955.80000   0.
    23.06000  2955.00000   0.
    24.60000  2954.30000   0.
    26.14000  2953.50000   0.
    27.68000  2952.80000   0.
    29.21000  2951.90000   0.
    30.75000  2951.10000   0.
    32.29000  2950.20000   0.
    33.83000  2949.50000   0.
    35.36000  2948.70000   0.
    36.90000  2948.10000   0.
    38.44000  2947.30000   0.
    39.98000  2946.70000   0.
    41.51000  2946.10000   0.
    43.05000  2945.50000   0.
    44.59000  2945.10000   0.
    46.13000  2944.50000   0.
    47.66000  2944.10000   0.
    49.20000  2943.60000   0.
    50.74000  2943.40000   0.
    52.28000  2943.00000   0.
    53.81000  2942.50000   0.
    55.35000  2942.10000   0.
    56.89000  2941.60000   0.
    58.43000  2941.00000   0.
    59.96000  2940.60000   0.
    61.50000  2940.10000   0.
    63.04000  2939.50000   0.
    64.58000  2939.10000   0.
    66.11000  2939.20000   0.
    67.65000  2939.20000   0.
    69.19000  2939.10000   0.
    70.73000  2938.90000   0.
    72.26000  2938.60000   0.
    73.80000  2938.30000   0.
    75.34000  2938.50000   0.
    76.88000  2938.70000   0.
    78.41000  2938.60000   0.
    79.95000  2938.80000   0.
    81.49000  2938.90000   0.
    83.03000  2939.10000   0.
    84.56000  2939.10000   0.
     3.42000  2957.55000   0.
     8.97000  2954.51000   0.
    14.52000  2951.86000   0.
    20.07000  2949.38000   0.
    25.63000  2946.59000   0.
    31.18000  2943.67000   0.
    36.73000  2940.99000   0.
    42.28000  2938.62000   0.
    47.83000  2936.87000   0.
    53.39000  2935.46000   0.
    58.94000  2933.69000   0.
    64.49000  2931.95000   0.
    70.04000  2931.81000   0.
    75.60000  2931.36000   0.
    81.15000  2931.70000   0.
     0.51333  2967.60000   0.
     1.02667  2967.10000   0.
     2.05333  2966.03333   0.
     2.56667  2965.46667   0.
     3.59000  2964.63333   0.
     4.10000  2964.36667   0.
     5.12333  2963.83333   0.
     5.63667  2963.56667   0.
     6.66333  2963.06667   0.
     7.17667  2962.83333   0.
     8.20333  2962.23333   0.
     8.71667  2961.86667   0.
     9.74000  2961.23333   0.
    10.25000  2960.96667   0.
    11.27333  2960.46667   0.
    11.78667  2960.23333   0.
    12.81333  2959.76667   0.
    13.32667  2959.53333   0.
    14.35333  2959.10000   0.
    14.86667  2958.90000   0.
    15.89000  2958.50000   0.
    16.40000  2958.30000   0.
    17.42333  2957.83333   0.
    17.93667  2957.56667   0.
    18.96333  2957.06667   0.
    19.47667  2956.83333   0.
    20.50000  2956.33333   0.
    21.01000  2956.06667   0.
    22.03333  2955.53333   0.
    22.54667  2955.26667   0.
    23.57333  2954.76667   0.
    24.08667  2954.53333   0.
    25.11333  2954.03333   0.
    25.62667  2953.76667   0.
    26.65333  2953.26667   0.
    27.16667  2953.03333   0.
    28.19000  2952.50000   0.
    28.70000  2952.20000   0.
    29.72333  2951.63333   0.
    30.23667  2951.36667   0.
    31.26333  2950.80000   0.
    31.77667  2950.50000   0.
    32.80333  2949.96667   0.
    33.31667  2949.73333   0.
    34.34000  2949.23333   0.
    34.85000  2948.96667   0.
    35.87333  2948.50000   0.
    36.38667  2948.30000   0.
    37.41333  2947.83333   0.
    37.92667  2947.56667   0.
    38.95333  2947.10000   0.
    39.46667  2946.90000   0.
    40.49000  2946.50000   0.
    41.00000  2946.30000   0.
    42.02333  2945.90000   0.
    42.53667  2945.70000   0.
    43.56333  2945.36667   0.
    44.07667  2945.23333   0.
    45.10333  2944.90000   0.
    45.61667  2944.70000   0.
    46.64000  2944.36667   0.
    47.15000  2944.23333   0.
    48.17333  2943.93333   0.
    48.68667  2943.76667   0.
    49.71333  2943.53333   0.
    50.22667  2943.46667   0.
    51.25333  2943.26667   0.
    51.76667  2943.13333   0.
    52.79000  2942.83333   0.
    53.30000  2942.66667   0.
    54.32333  2942.36667   0.
    54.83667  2942.23333   0.
    55.86333  2941.93333   0.
    56.37667  2941.76667   0.
    57.40333  2941.40000   0.
    57.91667  2941.20000   0.
    58.94000  2940.86667   0.
    59.45000  2940.73333   0.
    60.47333  2940.43333   0.
    60.98667  2940.26667   0.
    62.01333  2939.90000   0.
    62.52667  2939.70000   0.
    63.55333  2939.36667   0.
    64.06667  2939.23333   0.
    65.34500  2939.15000   0.
    66.88000  2939.20000   0.
    68.42000  2939.15000   0.
    69.70333  2939.03333   0.
    70.21667  2938.96667   0.
    71.24000  2938.80000   0.
    71.75000  2938.70000   0.
    72.77333  2938.50000   0.
    73.28667  2938.40000   0.
    74.31333  2938.36667   0.
    74.82667  2938.43333   0.
    75.85333  2938.56667   0.
    76.36667  2938.63333   0.
    77.64500  2938.65000   0.
    78.92333  2938.66667   0.
    79.43667  2938.73333   0.
    80.72000  2938.85000   0.
    82.00333  2938.96667   0.
    82.51667  2939.03333   0.
    83.79500  2939.10000   0.
     0.08400  2959.57200   0.
     1.19600  2958.89800   0.
     2.30800  2958.22400   0.
     4.53000  2956.94200   0.
     5.64000  2956.33400   0.
     6.75000  2955.72600   0.
     7.86000  2955.11800   0.
    10.35750  2953.84750   0.
    11.74500  2953.18500   0.
    13.13250  2952.52250   0.
    15.90750  2951.24000   0.
    17.29500  2950.62000   0.
    18.68250  2950.00000   0.
    21.18200  2948.82200   0.
    22.29400  2948.26400   0.
    23.40600  2947.70600   0.
    24.51800  2947.14800   0.
    26.74000  2946.00600   0.
    27.85000  2945.42200   0.
    28.96000  2944.83800   0.
    30.07000  2944.25400   0.
    32.56750  2943.00000   0.
    33.95500  2942.33000   0.
    35.34250  2941.66000   0.
    38.11750  2940.39750   0.
    39.50500  2939.80500   0.
    40.89250  2939.21250   0.
    43.66750  2938.18250   0.
    45.05500  2937.74500   0.
    46.44250  2937.30750   0.
    49.22000  2936.51750   0.
    50.61000  2936.16500   0.
    52.00000  2935.81250   0.
    54.77750  2935.01750   0.
    56.16500  2934.57500   0.
    57.55250  2934.13250   0.
    60.32750  2933.25500   0.
    61.71500  2932.82000   0.
    63.10250  2932.38500   0.
    65.87750  2931.91500   0.
    67.26500  2931.88000   0.
    68.65250  2931.84500   0.
    71.43000  2931.69750   0.
    72.82000  2931.58500   0.
    74.21000  2931.47250   0.
    76.98750  2931.44500   0.
    78.37500  2931.53000   0.
    79.76250  2931.61500   0.
    82.53750  2931.75500   0.
    83.92500  2931.81000   0.
     6.60134  2937.05984   0.
    20.80435  2932.52560   0.
     3.78758  2946.36592   0.
    15.48523  2940.98228   0.
    29.30091  2934.50364   0.
    23.90594  2939.46561   0.
    40.87322  2931.62711   0.
     1.03219  2951.87344   0.
    10.83406  2946.32292   0.
    20.42668  2943.42459   0.
    48.80952  2930.83467   0.
    35.50309  2935.49258   0.
     7.54365  2949.73854   0.
    28.57967  2939.84283   0.
    15.90963  2945.83181   0.
    44.30452  2933.27820   0.
    -0.12722  2955.42655   0.
    24.47411  2943.04615   0.
     4.45051  2952.86019   0.
    40.01017  2935.22543   0.
    52.75593  2931.58993   0.
    13.75183  2934.27842   0.
    32.31862  2938.44653   0.
     0.40990  2931.04902   0.
    19.20708  2946.27332   0.
    57.19103  2930.55709   0.
    -0.97178  2947.27328   0.
    19.39705  2939.49643   0.
    11.08068  2950.12444   0.
    32.86215  2930.47012   0.
     7.41320  2941.82707   0.
    13.76382  2948.77946   0.
    27.17579  2942.79365   0.
     7.27112  2952.68663   0.
     2.71547  2954.94653   0.
    22.91159  2945.17994   0.
     2.00816  2941.86911   0.
    24.73355  2934.79062   0.
    47.86753  2934.00196   0.
    50.62083  2933.29089   0.
    60.15732  2930.28185   0.
    37.65425  2937.53830   0.
    44.64836  2929.77041   0.
    10.93416  2939.02064   0.
     4.26476  2949.76242   0.
    36.78915  2931.78219   0.
     7.36345  2946.13476   0.
    30.92470  2941.06806   0.
     6.19921  2931.10091   0.
    35.16618  2938.51604   0.
    16.36294  2929.87801   0.
    13.43632  2943.77014   0.
    42.64967  2935.50406   0.
    26.89596  2931.23775   0.
     1.59760  2936.73753   0.
    17.19200  2948.13905   0.
    -0.61497  2957.60981   0.
    26.49360  2937.36117   0.
     9.56799  2951.50953   0.
    17.55858  2943.77119   0.
    55.26825  2932.33039   0.
    22.03247  2936.46128   0.
    16.10828  2937.24515   0.
    22.48452  2941.40733   0.
    20.86327  2946.43955   0.
    29.71126  2937.35408   0.
    32.14062  2935.59882   0.
    45.26358  2935.44707   0.
    29.19256  2942.39482   0.
    25.22337  2944.48902   0.
    25.77440  2940.40763   0.
     5.12787  2951.33100   0.
     9.72036  2943.07255   0.
     0.63027  2944.64860   0.
     5.15669  2954.13690   0.
    33.80274  2940.56791   0.
     1.57076  2956.41210   0.
     9.31000  2947.97928   0.
     9.87726  2933.53233   0.
    53.60824  2932.85261   0.
    40.63972  2936.89193   0.
    13.47285  2946.23828   0.
    37.68088  2934.75035   0.
    46.32767  2931.88185   0.
    18.64740  2941.16071   0.
    13.09413  2950.32980   0.
    18.01744  2935.92389   0.
     0.55332  2948.73049   0.
     5.35766  2947.55011   0.
    42.44669  2933.52960   0.
    57.75733  2932.24094   0.
    23.68300  2931.83870   0.
    19.94397  2947.74183   0.
    61.81887  2931.15328   0.
[...]
POINT_DATA      1414
CELL_DATA      2568
SCALARS Resistivity(ohm.m) double 1
LOOKUP_TABLE default
          1126.69385          1796.76010          2207.83851          1064.81733           487.95118          2148.36695          1301.07292          1504.72549          1752.23315          2060.35317           772.90758          2031.47268           578.89340          2259.18522          2242.50992          1892.34557          1652.90142           464.52277           394.86852          2242.99789          1215.18135          1927.91887          1304.75639           569.64523          1902.36432           495.24470           290.68107          2131.06907          2237.97903          2196.79753           415.21972           508.01056          1725.09441           413.85395           368.75496          1648.59063           751.25822           878.32659          1249.14857          1529.00010          1907.21668           687.66211           379.29608          2314.21946           309.86185           435.52442          2962.50016           814.70681           603.99795           954.79689          2484.18437          1904.67355          1014.20304          1661.80996          2169.12396           822.07954           340.76042          2169.02086           383.02156          1085.93543           497.61112          2115.99008           463.20769          1869.74391           286.32059          1663.91257          2081.14587          2021.03256           292.87487           593.80132           487.15563           808.05364          2078.90298           365.15554           349.44257          2984.78589          1471.13932           454.89246           372.28314          2736.27433          2549.66872          1458.58242           362.77619           442.92135          2051.67525           658.43266           319.64548          2145.27385           892.40563          1920.71856           999.99212           321.34729          2160.27476           389.83571          1739.13825          2026.11854           527.36789          1230.03294          2166.18484           933.14465          1605.60096           479.89990           546.02184           705.95673           960.67219          1780.62190           464.67417           930.56915          2065.00175          1321.92659           411.24054          1141.64592          2527.77754          1840.62256          2071.29286          1382.24291          1062.15166          1582.90623           366.37194           312.81703          2189.91096          1437.41367          3048.86896           663.16304           501.52975          2046.76688          2418.77048          3349.55000          1852.44908          1425.30128          2048.07279          1046.73298          1265.89450          2202.33897           790.78003          2875.65102           408.16937          1743.58639           926.29603          1444.61242          1660.96116           457.97553           521.69432          1346.98122          1719.34498           494.08874           387.70610          1529.73840          1960.17300           503.35524          2208.04987          1956.07938           896.21568           698.76323          2192.32567           324.26723          1626.52002           415.87786          2229.15008          1327.89186          1178.35944           443.31461          2355.05384           430.18670          2150.21908           519.06383          1434.38339          1793.43068          1990.09519          1785.09389           720.59845           722.66577           598.31534           287.33284           345.39186           948.52169           681.18127          3695.71167          2678.68537          1110.97645          2160.17940          1439.32247          1996.30106           645.95406           493.80529           868.47575           739.72700           540.42169           880.42856          2428.00476          1237.15496          2348.61525           478.04383          2584.04197           284.42832           409.49321          2497.35832          2059.04773          1233.74177           345.67777           327.90614           841.57055          1827.98699          1512.82475          1793.08080           972.52233          4038.86625          2201.27293           331.29927          2177.29145          1357.82404           524.74798           348.01930           333.74835           531.64717          1176.77555          2316.30301           487.55049          1244.82730           432.27865           894.95332          1345.10849          1074.23893           350.11234           582.91009           520.19915           411.88243           439.62155          1360.56686           317.06242          1069.59012          1987.95905          1458.46049          3005.28124          2251.41123          1679.48608          2300.30332          1458.35237          1423.20356          1411.62423          2540.95563           619.18509           851.43335           358.98636          2372.39908           300.88578          1892.72377           434.25191           459.42245          2106.54030           295.72408          1996.77444          1745.91645           556.72393          2001.29772           925.73514           623.31824           594.80775           637.56194          2934.36409           546.38541          2150.17496           477.76890           366.18650           385.02752          1664.00738           348.19933          2166.97272           779.34290          2226.84351          1011.60015          2073.20379          2439.20291          2133.58715           463.83556          1672.17405          2160.71854           465.64092           708.41971           644.49000           474.33786          1459.21482           303.34516           872.94949           911.32427          2195.85271           381.53972          2273.92815           580.01154           473.57843           952.97318           330.84768          2220.45479           531.55404          1959.54763          2165.10199          1466.64519           450.13271           379.23655           524.10900          1025.47772           373.65302          2371.74823          2515.59179           408.00119          1884.76219          1362.64643          1588.98660          1998.94204           410.72583           557.34198           554.14028           289.38558          2165.96654           784.04398           350.89775           457.36284          1169.76114          2800.55917           470.51226          3381.01415           346.66968           883.31424           464.29361           437.96908          1210.34023           404.93775          1472.77093           968.73873          2872.88235          1813.34458          2113.44711           415.70286          1608.38512           318.34872           335.76767           476.42335           537.58616          3252.71983           516.13286          2107.83257           436.32337          2081.76277           446.40603           486.91927          1859.89160          1191.76722          1031.57343           406.66957          2114.26348           460.91864          2413.67786           650.66437           394.90991           377.06954          2057.71316           426.47491          1619.85169           297.88145           330.37894           835.40365          1599.31098           884.70098           430.90266          1408.86899           417.26460           375.93476          2187.90199          1793.70286          2672.71558           462.32902          1359.48684          1464.38869          1026.06535           297.84987          2630.75714           346.98743           484.09698           427.20961          2022.13961          1409.72353           452.00681          1855.71804          2292.83454           309.21132          1407.23174           518.27618          1379.11367           363.06251          1535.56891           570.95155           304.32099          1502.16828          1363.27080           446.12404           806.42145           465.29902          1363.06043          1793.90215          1021.76293           528.62471           505.61272          1380.87322          1538.19130          1338.78383           760.25994           498.41475           831.41094          2156.09383          1692.76251          1544.53107          2138.79900          1023.02104           587.33675          1138.21347          2349.03930           676.15529           809.34168           663.18590          1776.35179           984.65074           323.69271          2131.61101          1448.17972          1297.48293           286.31036          1625.38259           528.19619          1460.37411           471.28457          1356.35022           469.19534           443.98382          1876.20102          1006.75920          1526.83279          1544.75737           620.68431          1945.01111          1311.27608          3723.12804           553.88486          1171.93193          1995.09122          1125.40557          1070.30046          1349.15725          1216.67320          4344.83322           730.94376          3430.83332          1614.80012          1511.78160          1227.51328          1684.28649           751.99964          2153.62696           799.25455          1385.89200           442.17624          1915.78696          1367.62589           756.58708          1348.57701          2122.41202           729.35152           865.61836          1206.16175          1693.51099          1697.30461           845.79934          1852.60463           819.93556           299.03311          1935.49692          4028.58257          1068.09647           366.74311          1541.55945           673.95786          1078.11658          1892.12667           411.01490           508.47593          2099.23633          2682.67244          1281.78342           383.73796           691.06276           712.89388          1312.90316          1160.69380          1000.85592          1603.38124           677.34686          1552.02970           653.53295          1027.13918          2562.33553          1845.66077           649.29037           353.95666           551.39926          1291.46400           674.92246          1228.43203          3751.20084          1279.91618           314.34637           392.84424          1292.24876          1204.23713           834.21669           343.39743          3242.46733          1484.19168           320.03216          3382.25550          2178.90252           438.50856          1432.96982          1269.32595          1024.94309          1210.03894          1035.44243           440.94506          1631.22328          1520.06680          1538.48677          1316.30610           580.72967          1765.79280           469.31988          1239.76111           469.00983           446.08258           609.93497          1762.22202          1082.85527           810.42972           462.93640           340.44580          1749.81809          1136.81875          4736.63340          5233.77893          4003.80578          2118.63520          2012.99237          1901.03089          3180.28129          4887.92561           578.08092          4020.50959           280.40955          1034.05277          1636.76989           570.90853          3305.30107          5462.56987          1349.20559           446.50312          2030.03827          2786.23322           814.75616           794.12304          1422.09464          5040.29919          1163.75675          2210.94994           885.88904           531.85861          1598.70919          1523.26436           429.43413          3659.84007           504.94387          1348.68843          5081.20210          4695.62120          1676.64669          6185.55436           351.21895           843.51221           451.51746          1785.48329          2672.51170          1697.14405          2767.35932          1787.14498          2618.54466           805.70671          1695.40537          1299.12927          1660.45301          6558.89443          4204.56005           960.51617          5442.15421          2870.84087           716.97102           695.79711          5384.78508          2728.86889          5168.67150          5909.06265          1428.46568           781.75005           621.35675           468.83605           761.37529          3921.00831          1579.48719           955.41796          1572.59941           389.80764          1059.97221          1705.97309          4303.25156           888.61248           781.99758           701.35019           625.24083          1611.86889          1432.34158           730.13849          3729.54620          3010.24959          3464.71944          3547.26027          6735.26270          4017.89333          2593.80669           550.54424          3965.30650          1134.42565          1558.69127           613.00438          1384.50896           740.83708           279.69408          7016.03605          4512.44604          1473.88512          1558.47577          2837.94142          2025.95455          3111.56610          3046.02204           840.43561          1142.87287           605.23903           732.13985           386.25091           518.58246           764.78769           536.45815          1974.68344          3975.91061          3238.19348          1447.94324          1905.50574          1368.40961          1517.97880          8507.38975          5355.27262          1744.08138           407.82877           538.08879          5632.61573           699.95254          3836.22558          4024.03300          1030.11001          2296.88459           663.35215           824.41291          1044.44479          2310.15292          2361.50851          2464.08399           586.01989           474.83709          1177.06813           416.17250           599.86480           426.60172          4090.14679          4256.40705           443.19032          2859.74020           817.49105          2606.82078          1264.26720           606.15916           609.11450           697.15022           591.18537          1889.48333           707.84275          1403.79798           674.63647          2370.43025          1751.69404          3087.22515          2620.61450           460.14446           622.22402           397.13317          3244.07362           717.43935           702.32871          1272.71873          2506.73167           669.00231           830.48722           536.58955          1255.54562           885.72107          1395.02472          1340.76139           579.56075           729.70616           776.68300          2612.07229          1655.00925          1211.53991          8218.66224          1025.85178           770.55418           900.53877          1320.87447          2339.58342          1502.25571          1549.01680          1384.69040          2717.25015           711.76649          6132.00937          1083.08473          2702.07020           737.01208          1180.74714          3230.39259          2735.39221           732.00463          1085.31303          3883.71497           488.93063           585.27693          1293.97438          2734.63865          5823.73392          1413.07333          7528.39319          1116.91652          1577.41429          1479.62401          1231.32497           433.80359           701.20749          2897.88421           699.38931          3523.19083           574.41977          2729.13471           724.96384           508.25413          1391.56048          1914.93319          3125.48503          4617.48411          2657.17200          1498.01570          1691.90479          1494.20987          5562.54697          7588.93305          1877.17102           918.07488          2685.98507           582.64404          1145.50564           830.97810          2615.18423          1173.00533          1043.37217           585.98880           574.95900          3428.73570           879.35262           765.31704          5737.32692          3621.82668          2476.10159          1323.54743          7414.74987           793.49466          2188.36456          2427.86415          2174.10374           964.37357          2928.38588          4654.47106          1704.67536           449.49845           778.86802           866.74646          1688.29718          1677.20120           610.05637           719.68538          5077.45195           633.67435          1077.90647          1863.98870          4642.68204          5212.47643           417.36995          1312.90386           804.67263          1061.95505          1795.10411           685.08081           819.78552          1354.22550           812.83933           545.01479           380.33019           765.74509          3040.78818           460.01463          2980.00188          1638.51786          1749.98342          1334.40300          1752.24983          1527.34887           395.64072          3253.94351          1376.70163          1834.06174          1724.58895          1984.11238          5323.49625           933.15560          6112.70319           641.16677           680.55900          1500.19627          1195.86370          7898.23646          2544.46499           822.08710          1680.11880          3763.30129          3956.60525           658.64586          4097.81450          1445.35950          2864.00882          1099.31874          3119.89058          3512.59292           481.56385          3581.35602          3748.76001          2403.75679          5672.57405           824.76026           753.89983          1184.05427          2254.56736           453.53410          7021.17006          4215.24688           677.67366          1655.51910          1515.54266          1961.26374           742.90983          1155.41423         11790.55930           643.72527          2269.28289          1296.27506           484.57428           742.00051          2467.29104          4649.08193          5330.11867          1472.94435          2375.18549          2696.17524          4826.98233           774.05827          1362.73123          1895.98457          1593.63233          5717.27842           608.89488          1179.73249          2496.36989           765.20601          3849.01626          2073.20387          7516.90390          1792.69085           915.08263          1197.29736           576.62737          5401.74969          7915.92356          1709.20655           296.95021           375.84228           774.63241           831.30667          6686.72414          1387.63273          2080.00138          3533.84670          2318.47239          5371.34955          5966.06474           363.85345           676.84747           722.85609          1205.80644           659.56088          4458.63356          3675.69545          1303.81821           598.69320          1006.33438          1941.41706          3304.64006          2275.00143          2029.38820           766.25976          3988.34574          6560.64285           472.14677           611.58690          1679.78754          8469.42842          1659.60863          3096.75057          5208.95679           644.32173          1602.62931          3806.52199           530.57372          1432.16032           817.07299          4462.59995           884.09723          1685.30051          2794.86211          4695.95591          3281.31654          6590.71958          4393.01273          4772.58202          1873.49533           708.70081          3341.77124          7949.13212           565.30120          2491.79547          2393.97171           327.80238          2231.64155          3136.46102          2502.68401           533.17741          4342.26547           736.40763          3935.28344          3795.26690          1773.77718           665.35830          3021.33697          2988.31786          5606.90392          6364.51080          6029.38029           681.22279           613.40586          1125.50552          3997.59792          1076.10176          2716.34492           726.74550           503.117