# vtk DataFile Version 3.0
Output from R2
ASCII
DATASET UNSTRUCTURED_GRID
POINTS       1414 double
     0.00000  2968.10000   0.
     1.54000  2966.60000   0.
     3.08000  2964.90000   0.
     4.61000  2964.10000   0.
     6.15000  2963.30000   0.
     7.69000  2962.60000   0.
     9.23000  2961.50000   0.
    10.76000  2960.70000   0.
    12.30000  2960.00000   0.
    13.84000  2959.30000   0.
    15.38000  2958.70000   0.
    16.91000  2958.10000   0.
    18.45000  2957.30000   0.
    19.99000  2956.60000   0.
    21.52000  2955.80000   0.
    23.06000  2955.00000   0.
    24.60000  2954.30000   0.
    26.14000  2953.50000   0.
    27.68000  2952.80000   0.
    29.21000  2951.90000   0.
    30.75000  2951.10000   0.
    32.29000  2950.20000   0.
    33.83000  2949.50000   0.
    35.36000  2948.70000   0.
    36.90000  2948.10000   0.
    38.44000  2947.30000   0.
    39.98000  2946.70000   0.
    41.51000  2946.10000   0.
    43.05000  2945.50000   0.
    44.59000  2945.10000   0.
    46.13000  2944.50000   0.
    47.66000  2944.10000   0.
    49.20000  2943.60000   0.
    50.74000  2943.40000   0.
    52.28000  2943.00000   0.
    53.81000  2942.50000   0.
    55.35000  2942.10000   0.
    56.89000  2941.60000   0.
    58.43000  2941.00000   0.
    59.96000  2940.60000   0.
    61.50000  2940.10000   0.
    63.04000  2939.50000   0.
    64.58000  2939.10000   0.
    66.11000  2939.20000   0.
    67.65000  2939.20000   0.
    69.19000  2939.10000   0.
    70.73000  2938.90000   0.
    72.26000  2938.60000   0.
    73.80000  2938.30000   0.
    75.34000  2938.50000   0.
    76.88000  2938.70000   0.
    78.41000  2938.60000   0.
    79.95000  2938.80000   0.
    81.49000  2938.90000   0.
    83.03000  2939.10000   0.
    84.56000  2939.10000   0.
     3.42000  2957.55000   0.
     8.97000  2954.51000   0.
    14.52000  2951.86000   0.
    20.07000  2949.38000   0.
    25.63000  2946.59000   0.
    31.18000  2943.67000   0.
    36.73000  2940.99000   0.
    42.28000  2938.62000   0.
    47.83000  2936.87000   0.
    53.39000  2935.46000   0.
    58.94000  2933.69000   0.
    64.49000  2931.95000   0.
    70.04000  2931.81000   0.
    75.60000  2931.36000   0.
    81.15000  2931.70000   0.
     0.51333  2967.60000   0.
     1.02667  2967.10000   0.
     2.05333  2966.03333   0.
     2.56667  2965.46667   0.
     3.59000  2964.63333   0.
     4.10000  2964.36667   0.
     5.12333  2963.83333   0.
     5.63667  2963.56667   0.
     6.66333  2963.06667   0.
     7.17667  2962.83333   0.
     8.20333  2962.23333   0.
     8.71667  2961.86667   0.
     9.74000  2961.23333   0.
    10.25000  2960.96667   0.
    11.27333  2960.46667   0.
    11.78667  2960.23333   0.
    12.81333  2959.76667   0.
    13.32667  2959.53333   0.
    14.35333  2959.10000   0.
    14.86667  2958.90000   0.
    15.89000  2958.50000   0.
    16.40000  2958.30000   0.
    17.42333  2957.83333   0.
    17.93667  2957.56667   0.
    18.96333  2957.06667   0.
    19.47667  2956.83333   0.
    20.50000  2956.33333   0.
    21.01000  2956.06667   0.
    22.03333  2955.53333   0.
    22.54667  2955.26667   0.
    23.57333  2954.76667   0.
    24.08667  2954.53333   0.
    25.11333  2954.03333   0.
    25.62667  2953.76667   0.
    26.65333  2953.26667   0.
    27.16667  2953.03333   0.
    28.19000  2952.50000   0.
    28.70000  2952.20000   0.
    29.72333  2951.63333   0.
    30.23667  2951.36667   0.
    31.26333  2950.80000   0.
    31.77667  2950.50000   0.
    32.80333  2949.96667   0.
    33.31667  2949.73333   0.
    34.34000  2949.23333   0.
    34.85000  2948.96667   0.
    35.87333  2948.50000   0.
    36.38667  2948.30000   0.
    37.41333  2947.83333   0.
    37.92667  2947.56667   0.
    38.95333  2947.10000   0.
    39.46667  2946.90000   0.
    40.49000  2946.50000   0.
    41.00000  2946.30000   0.
    42.02333  2945.90000   0.
    42.53667  2945.70000   0.
    43.56333  2945.36667   0.
    44.07667  2945.23333   0.
    45.10333  2944.90000   0.
    45.61667  2944.70000   0.
    46.64000  2944.36667   0.
    47.15000  2944.23333   0.
    48.17333  2943.93333   0.
    48.68667  2943.76667   0.
    49.71333  2943.53333   0.
    50.22667  2943.46667   0.
    51.25333  2943.26667   0.
    51.76667  2943.13333   0.
    52.79000  2942.83333   0.
    53.30000  2942.66667   0.
    54.32333  2942.36667   0.
    54.83667  2942.23333   0.
    55.86333  2941.93333   0.
    56.37667  2941.76667   0.
    57.40333  2941.40000   0.
    57.91667  2941.20000   0.
    58.94000  2940.86667   0.
    59.45000  2940.73333   0.
    60.47333  2940.43333   0.
    60.98667  2940.26667   0.
    62.01333  2939.90000   0.
    62.52667  2939.70000   0.
    63.55333  2939.36667   0.
    64.06667  2939.23333   0.
    65.34500  2939.15000   0.
    66.88000  2939.20000   0.
    68.42000  2939.15000   0.
    69.70333  2939.03333   0.
    70.21667  2938.96667   0.
    71.24000  2938.80000   0.
    71.75000  2938.70000   0.
    72.77333  2938.50000   0.
    73.28667  2938.40000   0.
    74.31333  2938.36667   0.
    74.82667  2938.43333   0.
    75.85333  2938.56667   0.
    76.36667  2938.63333   0.
    77.64500  2938.65000   0.
    78.92333  2938.66667   0.
    79.43667  2938.73333   0.
    80.72000  2938.85000   0.
    82.00333  2938.96667   0.
    82.51667  2939.03333   0.
    83.79500  2939.10000   0.
     0.08400  2959.57200   0.
     1.19600  2958.89800   0.
     2.30800  2958.22400   0.
     4.53000  2956.94200   0.
     5.64000  2956.33400   0.
     6.75000  2955.72600   0.
     7.86000  2955.11800   0.
    10.35750  2953.84750   0.
    11.74500  2953.18500   0.
    13.13250  2952.52250   0.
    15.90750  2951.24000   0.
    17.29500  2950.62000   0.
    18.68250  2950.00000   0.
    21.18200  2948.82200   0.
    22.29400  2948.26400   0.
    23.40600  2947.70600   0.
    24.51800  2947.14800   0.
    26.74000  2946.00600   0.
    27.85000  2945.42200   0.
    28.96000  2944.83800   0.
    30.07000  2944.25400   0.
    32.56750  2943.00000   0.
    33.95500  2942.33000   0.
    35.34250  2941.66000   0.
    38.11750  2940.39750   0.
    39.50500  2939.80500   0.
    40.89250  2939.21250   0.
    43.66750  2938.18250   0.
    45.05500  2937.74500   0.
    46.44250  2937.30750   0.
    49.22000  2936.51750   0.
    50.61000  2936.16500   0.
    52.00000  2935.81250   0.
    54.77750  2935.01750   0.
    56.16500  2934.57500   0.
    57.55250  2934.13250   0.
    60.32750  2933.25500   0.
    61.71500  2932.82000   0.
    63.10250  2932.38500   0.
    65.87750  2931.91500   0.
    67.26500  2931.88000   0.
    68.65250  2931.84500   0.
    71.43000  2931.69750   0.
    72.82000  2931.58500   0.
    74.21000  2931.47250   0.
    76.98750  2931.44500   0.
    78.37500  2931.53000   0.
    79.76250  2931.61500   0.
    82.53750  2931.75500   0.
    83.92500  2931.81000   0.
     6.60134  2937.05984   0.
    20.80435  2932.52560   0.
     3.78758  2946.36592   0.
    15.48523  2940.98228   0.
    29.30091  2934.50364   0.
    23.90594  2939.46561   0.
    40.87322  2931.62711   0.
     1.03219  2951.87344   0.
    10.83406  2946.32292   0.
    20.42668  2943.42459   0.
    48.80952  2930.83467   0.
    35.50309  2935.49258   0.
     7.54365  2949.73854   0.
    28.57967  2939.84283   0.
    15.90963  2945.83181   0.
    44.30452  2933.27820   0.
    -0.12722  2955.42655   0.
    24.47411  2943.04615   0.
     4.45051  2952.86019   0.
    40.01017  2935.22543   0.
    52.75593  2931.58993   0.
    13.75183  2934.27842   0.
    32.31862  2938.44653   0.
     0.40990  2931.04902   0.
    19.20708  2946.27332   0.
    57.19103  2930.55709   0.
    -0.97178  2947.27328   0.
    19.39705  2939.49643   0.
    11.08068  2950.12444   0.
    32.86215  2930.47012   0.
     7.41320  2941.82707   0.
    13.76382  2948.77946   0.
    27.17579  2942.79365   0.
     7.27112  2952.68663   0.
     2.71547  2954.94653   0.
    22.91159  2945.17994   0.
     2.00816  2941.86911   0.
    24.73355  2934.79062   0.
    47.86753  2934.00196   0.
    50.62083  2933.29089   0.
    60.15732  2930.28185   0.
    37.65425  2937.53830   0.
    44.64836  2929.77041   0.
    10.93416  2939.02064   0.
     4.26476  2949.76242   0.
    36.78915  2931.78219   0.
     7.36345  2946.13476   0.
    30.92470  2941.06806   0.
     6.19921  2931.10091   0.
    35.16618  2938.51604   0.
    16.36294  2929.87801   0.
    13.43632  2943.77014   0.
    42.64967  2935.50406   0.
    26.89596  2931.23775   0.
     1.59760  2936.73753   0.
    17.19200  2948.13905   0.
    -0.61497  2957.60981   0.
    26.49360  2937.36117   0.
     9.56799  2951.50953   0.
    17.55858  2943.77119   0.
    55.26825  2932.33039   0.
    22.03247  2936.46128   0.
    16.10828  2937.24515   0.
    22.48452  2941.40733   0.
    20.86327  2946.43955   0.
    29.71126  2937.35408   0.
    32.14062  2935.59882   0.
    45.26358  2935.44707   0.
    29.19256  2942.39482   0.
    25.22337  2944.48902   0.
    25.77440  2940.40763   0.
     5.12787  2951.33100   0.
     9.72036  2943.07255   0.
     0.63027  2944.64860   0.
     5.15669  2954.13690   0.
    33.80274  2940.56791   0.
     1.57076  2956.41210   0.
     9.31000  2947.97928   0.
     9.87726  2933.53233   0.
    53.60824  2932.85261   0.
    40.63972  2936.89193   0.
    13.47285  2946.23828   0.
    37.68088  2934.75035   0.
    46.32767  2931.88185   0.
    18.64740  2941.16071   0.
    13.09413  2950.32980   0.
    18.01744  2935.92389   0.
     0.55332  2948.73049   0.
     5.35766  2947.55011   0.
    42.44669  2933.52960   0.
    57.75733  2932.24094   0.
    23.68300  2931.83870   0.
    19.94397  2947.74183   0.
    61.81887  2931.15328   0.
[...]
POINT_DATA      1414
CELL_DATA      2568
SCALARS Resistivity(ohm.m) double 1
LOOKUP_TABLE default
          1144.31074          1742.40317          2418.81143          1092.63820           500.37287          2255.99327          1313.01641          1544.01362          1656.06165          2140.78009           829.26423          2123.57642           608.78694          2234.82365          2213.80087          1980.72593          1570.14898           512.52403           429.88123          2252.76110          1216.23326          1987.40635          1260.41889           586.60727          1843.03552           542.83468           278.85216          2209.62212          2191.50846          2401.20971           450.89437           562.19936          1658.91938           455.31267           386.15645          1715.72019           771.52960           946.10245          1212.05421          1572.18595          1821.00680           735.50886           419.32962          2280.07937           327.78871           483.51111          2846.95432           875.61862           640.03783           958.25832          2406.02786          1835.64198          1064.68158          1571.94904          2351.77748           894.45651           360.36961          2333.87261           406.64424          1129.82742           520.50520          2085.40189           506.99954          1931.84100           279.67186          1566.43330          2103.03594          2064.59674           299.09252           661.16431           537.88493           828.49625          2025.61257           390.74777           352.44796          2910.60792          1439.97130           500.95546           363.08169          2649.18755          2474.73190          1491.26877           390.48680           489.95695          2011.78982           729.44154           335.80226          2087.28799           905.32532          1924.01636          1051.05252           344.98520          2304.42605           399.31501          1823.14364          1972.34659           554.16828          1255.65489          2132.04274           992.93590          1554.94147           518.14814           607.15029           760.97132           953.01421          1688.77546           482.88388           988.05746          2220.74757          1337.41918           431.06538          1154.53536          2493.72077          1832.95541          2009.73048          1305.91147          1076.73026          1503.45001           405.91702           324.71717          2242.22705          1398.19623          2940.10068           732.33053           537.33701          2044.45634          2384.71996          3195.30414          1878.98078          1455.28870          2078.31381          1072.13915          1215.90380          2185.86691           857.41946          2824.48367           426.19595          1654.64657           984.98642          1360.37955          1595.88437           488.08178           581.01522          1368.60404          1643.17149           541.44567           414.15074          1473.53633          1917.37904           538.57960          2414.20835          1889.86118           959.08465           734.39448          2207.16307           319.36707          1667.62835           458.93901          2187.73893          1266.62283          1213.09774           477.98712          2314.03379           436.21291          2288.14263           536.55322          1463.57315          1881.90383          1912.47938          1710.26368           764.33138           790.07794           667.45718           288.54810           375.65488           984.58914           754.51431          3534.16870          2640.47491          1149.17431          2205.18859          1465.37539          1994.29597           718.15712           527.56266           934.08946           813.88078           604.89463           922.01178          2393.45982          1196.55925          2319.91690           535.40140          2523.96551           282.93263           455.96621          2444.53057          2112.30063          1228.93206           380.41496           317.98552           869.47292          1834.25648          1432.77210          1871.86582          1020.42113          3838.48063          2401.35104           362.27165          2357.02268          1301.89201           578.74544           382.06555           348.07379           554.94435          1179.17436          2284.78672           541.63722          1246.47409           475.72940           918.55036          1351.66873          1115.42581           364.02190           637.52331           582.21886           412.84802           491.05750          1287.23415           322.45138          1099.81278          2121.17324          1408.99939          2952.45580          2244.31093          1712.63068          2275.16009          1478.44325          1422.28239          1361.20333          2496.04954           669.11717           917.23992           388.45500          2339.10008           295.12239          1871.46860           449.57417           497.55592          2209.86909           284.62980          2117.83503          1768.85817           624.13123          1988.62070           987.68913           656.62664           665.49835           700.85346          2896.99576           569.90542          2292.16029           516.50987           401.72722           407.29536          1678.82006           366.02284          2316.39464           850.38221          2439.06877          1047.73665          2206.62093          2403.98411          2184.05528           515.59201          1618.77123          2336.61215           520.55041           736.16382           681.86906           531.06650          1376.80522           302.81537           940.05696           963.06685          2382.20471           423.14232          2257.15173           628.10606           489.74413           981.22812           336.02879          2210.11646           592.60997          1928.39121          2231.37477          1451.94428           492.75568           413.92876           587.99483          1030.99858           402.36953          2320.78835          2478.60150           445.92387          1804.28287          1299.19478          1518.06214          1926.99861           419.58215           623.76262           585.43278           296.55410          2277.26476           829.24488           361.96862           465.14339          1198.55195          2768.85352           520.74002          3269.56810           367.82882           884.45011           469.89136           486.70674          1184.97130           421.34630          1386.54251          1012.53937          2799.80525          1773.19545          2187.81607           460.98056          1611.59665           332.77187           364.43080           533.43576           587.44048          3145.94531           545.31040          2099.42419           462.60298          2124.36327           486.13616           537.22485          1782.11822          1218.70534          1015.52259           419.81862          2141.59514           495.58743          2381.28436           724.65222           412.16518           416.04897          2042.27980           455.24535          1608.61265           311.76753           359.55955           874.66460          1506.89718           942.29894           475.79129          1338.00566           457.09156           391.22319          2270.10059          1810.42155          2640.27632           516.54429          1290.33393          1397.74515          1050.80861           297.91921          2581.28871           372.75989           540.83259           468.75368          1989.13168          1350.98188           486.48062          1768.82608          2271.80633           294.76839          1332.43273           558.70920          1399.02808           397.00825          1543.30479           634.89046           322.13407          1417.16997          1377.53996           463.34630           857.10402           515.17199          1389.91461          1711.94953          1068.27598           555.29175           562.26207          1345.83522          1445.25445          1315.25620           835.46342           540.57198           902.44361          2252.13151          1665.95298          1525.08239          2120.02998          1065.07277           602.75126          1142.30072          2297.26028           710.37654           817.69042           720.04523          1778.49746          1031.96274           351.53745          2139.62069          1454.48271          1294.32428           288.13535          1681.54838           563.62738          1386.97973           512.52710          1340.09576           512.15418           469.91580          1988.28805          1059.78328          1461.00289          1514.40930           663.74670          1871.36374          1333.99635          3531.27406           572.72518          1166.04388          2126.90112          1125.35646          1116.11147          1278.78855          1197.78370          4161.06651           806.85393          3283.43296          1577.82188          1544.47926          1247.30439          1742.71135           824.60702          2111.11864           871.84888          1399.43339           488.49188          1879.94408          1326.11114           831.26361          1375.14750          2222.87755           804.61059           914.26246          1236.94549          1764.96160          1684.29460           857.02232          1800.40013           889.89584           293.25561          1915.26816          3871.60393          1109.64779           393.81177          1557.24858           737.44783          1076.74875          2005.48411           456.30505           548.23948          2184.93613          2586.18354          1309.75176           397.90248           717.91395           783.75068          1275.63989          1195.90232          1035.16835          1508.16539           752.41359          1458.78034           727.81646          1075.73383          2529.74899          1781.83600           692.80151           360.93596           590.15432          1297.70200           749.18922          1243.71854          3650.55652          1261.99420           338.05491           432.64204          1319.03532          1217.41020           901.01260           374.34739          3167.84854          1395.67121           345.69810          3313.31778          2184.06663           487.44057          1411.47203          1244.26363          1064.62668          1242.24113          1077.84783           490.83644          1652.03443          1429.85676          1448.70780          1342.37076           650.18236          1804.56963           520.72197          1264.83353           521.16931           495.59581           681.25979          1735.81279          1118.50448           880.73715           515.46365           368.48598          1708.26623          1159.20699          4522.31285          5180.50146          3618.60461          2028.53263          1929.95315          2389.11067          3738.15614          5318.07368           663.96097          4471.87859           362.64471          1066.30504          1383.91037           562.68852          4016.13068          5009.00010          1323.45316           425.90898          1876.75798          2537.58420           734.98895           770.95756          1383.92596          4423.51143          1198.78992          2471.39463          1178.13823           525.21625          1522.98438          1525.61063           440.06220          3357.36760           481.19101          1366.66683          5451.98269          4040.70056          1719.54864          6196.25155           324.05685           825.49420           450.02994          1948.52693          2525.87479          1564.16865          2861.81558          1639.31582          2362.44305           754.14422          1441.19355          1280.24788          1854.69144          7850.29034          3607.17009           930.80186          4799.36910          3753.43648           822.64468           626.54982          5009.90939          2444.70777          4428.48459          5926.96239          1405.33104           823.40143           690.29032           450.55234           776.82715          4644.76229          1444.95067           986.29536          1613.24072           363.25362          1030.56255          1655.81029          4016.14465           914.37815           955.91609           715.80694           673.92422          1660.00632          1374.86223           758.72263          3297.51589          2938.74179          3240.40936          3346.40627          5679.37826          4851.82625          2578.74404           508.36279          4592.66611          1177.56058          1473.13573           628.43365          1369.49634           850.96389           351.75949          7442.41277          4992.14218          1432.61966          1443.38378          2617.47241          2114.03755          2977.97941          3043.72679           877.60866          1115.55100           541.98257           944.23771           386.40599           487.12092           829.65339           556.75836          1851.82104          4855.52884          3449.28118          1399.69961          2431.74403          1318.83761          1618.70482          7740.71648          5035.11312          1781.87599           413.63158           601.68881          5226.83975           641.84957          3806.28309          4402.74979          1009.68335          2522.12098           635.17482          1080.68417          1025.15720          2408.23489          2501.59767          2607.90377           588.94660           441.05795          1114.25954           379.37046           577.95261           402.28569          3525.79581          5140.17772           465.72775          2621.23831           772.45470          2327.08309          1213.11725           768.75223           619.12703           622.74204           600.48486          1844.80673           710.85230          1367.39987           659.47291          2630.97159          1815.98833          4013.88763          2745.16274           530.03780           536.42877           360.75315          3062.92588           703.57179           665.57280          1259.21527          2477.55240           861.81405           787.63085           505.75841          1228.02051          1076.02894          1564.73475          1295.09979           573.96204           770.71174           679.23427          2406.06043          2124.51605          1136.66909          7478.40988          1018.01865           773.04619           898.42044          1373.79864          2344.90866          1532.53636          1595.54065          1403.94182          2484.40812           945.71862          7215.63196          1409.61543          2507.62517           713.79176          1118.23383          3733.12871          3208.08917           733.10716          1065.16102          3364.35591           517.92771           561.36732          1260.38766          2868.89011          6424.55637          1491.98441          6848.52826          1240.67661          1549.84896          1468.33104          1176.80257           437.98739           751.89565          2642.77785           716.71497          4264.20517           579.91906          3065.12497           900.12204           585.76333          1304.82608          2048.59769          2842.23277          4803.30893          2384.57687          1486.86346          1525.33494          1302.58694          7057.20629          7181.81663          1948.45909           955.99239          2635.18853           578.44211          1093.11536           814.21744          2652.42755          1113.13284           984.89056           542.42578           577.85518          3477.28961           953.47449           716.02036          6303.52414          4111.69048          2362.00610          1289.88371          8717.27474           759.09869          2402.26015          2927.93002          2036.77664          1041.88740          2796.43492          5644.67850          1699.46228           382.66506           673.12504           864.55518          1625.98699          1491.48474           625.42521           654.86601          6930.81873           695.43835          1198.43608          1960.60703          3916.70665          5165.97177           393.94574          1274.58042           814.34551          1035.42480          1725.35691           704.95856           821.55419          1568.78236           835.22635           554.47357           367.15345           752.83292          2819.85146           463.58778          2810.59292          1615.89657          2210.11083          1339.70488          1628.93050          1546.48128           380.40994          3540.65799          1404.10943          1856.26433          1827.64978          2155.39105          5465.39664          1018.10219          5307.38344           612.23600           734.02642          1562.31381          1134.78575          7275.61689          2427.75532           784.19898          1711.90164          4215.28610          3534.57730           599.08613          4973.69419          1343.84769          2764.35615          1098.03289          3726.62573          3731.71796           467.32637          3687.05769          4193.81672          2464.10088          5183.10935           842.46446           718.82224          1127.54967          2479.81022           475.36383          7952.60162          4405.22186           624.83847          1547.44784          1563.90977          1731.99023           831.15635          1099.66698         12199.40089           607.66721          2213.08679          1290.14365           511.79762           762.03062          2405.59403          4935.05248          6524.75287          1533.23769          2891.53473          2514.32162          4547.41167           684.04385          1318.16195          2012.55118          1808.70748          5099.57171           558.25529          1120.05084          2765.99939           785.01486          3644.82344          2217.39385          6559.96740          2106.62698          1199.14673          1144.44776           586.44289          4954.04384          6997.53435          2082.63366           381.66288           395.93618           765.90687           745.76168          6192.28910          1373.45355          2194.31156          3200.91029          2870.56342          5499.15160          5406.23055           363.14442           646.42546           739.11056          1192.12801           577.98178          4849.62474          3911.94986          1234.52001           793.27421           988.76482          2312.78502          3556.96959          2160.12328          1927.20351           817.11077          4883.38542          7275.77497           511.27452           675.82554          1704.12929          7158.45077          1899.01679          2948.85551          5595.95357           806.50513          1758.41157          4505.35408           576.97329          1437.74678          1031.44048          5081.34136           878.34629          1751.12491          3214.65948          5567.01264          4303.58757          5878.21042          4600.65931          4179.07691          1773.19626           761.72273          3905.54060          9130.74789           565.85024          2378.39958          2655.82682           304.62026          2390.53078          3347.51789          2633.87683           416.63655          4604.89469           766.30147          3411.98054          4033.88419          1833.11031           733.04357          2851.65059          3443.12156          5917.61628          6056.98627          5351.31328           608.80830           604.15633          1110.16636          4940.46336          1016.68920          2600.19731           736.36721           671.256