# vtk DataFile Version 3.0
Output from R2
ASCII
DATASET UNSTRUCTURED_GRID
POINTS       1414 double
     0.00000  2968.10000   0.
     1.54000  2966.60000   0.
     3.08000  2964.90000   0.
     4.61000  2964.10000   0.
     6.15000  2963.30000   0.
     7.69000  2962.60000   0.
     9.23000  2961.50000   0.
    10.76000  2960.70000   0.
    12.30000  2960.00000   0.
    13.84000  2959.30000   0.
    15.38000  2958.70000   0.
    16.91000  2958.10000   0.
    18.45000  2957.30000   0.
    19.99000  2956.60000   0.
    21.52000  2955.80000   0.
    23.06000  2955.00000   0.
    24.60000  2954.30000   0.
    26.14000  2953.50000   0.
    27.68000  2952.80000   0.
    29.21000  2951.90000   0.
    30.75000  2951.10000   0.
    32.29000  2950.20000   0.
    33.83000  2949.50000   0.
    35.36000  2948.70000   0.
    36.90000  2948.10000   0.
    38.44000  2947.30000   0.
    39.98000  2946.70000   0.
    41.51000  2946.10000   0.
    43.05000  2945.50000   0.
    44.59000  2945.10000   0.
    46.13000  2944.50000   0.
    47.66000  2944.10000   0.
    49.20000  2943.60000   0.
    50.74000  2943.40000   0.
    52.28000  2943.00000   0.
    53.81000  2942.50000   0.
    55.35000  2942.10000   0.
    56.89000  2941.60000   0.
    58.43000  2941.00000   0.
    59.96000  2940.60000   0.
    61.50000  2940.10000   0.
    63.04000  2939.50000   0.
    64.58000  2939.10000   0.
    66.11000  2939.20000   0.
    67.65000  2939.20000   0.
    69.19000  2939.10000   0.
    70.73000  2938.90000   0.
    72.26000  2938.60000   0.
    73.80000  2938.30000   0.
    75.34000  2938.50000   0.
    76.88000  2938.70000   0.
    78.41000  2938.60000   0.
    79.95000  2938.80000   0.
    81.49000  2938.90000   0.
    83.03000  2939.10000   0.
    84.56000  2939.10000   0.
     3.42000  2957.55000   0.
     8.97000  2954.51000   0.
    14.52000  2951.86000   0.
    20.07000  2949.38000   0.
    25.63000  2946.59000   0.
    31.18000  2943.67000   0.
    36.73000  2940.99000   0.
    42.28000  2938.62000   0.
    47.83000  2936.87000   0.
    53.39000  2935.46000   0.
    58.94000  2933.69000   0.
    64.49000  2931.95000   0.
    70.04000  2931.81000   0.
    75.60000  2931.36000   0.
    81.15000  2931.70000   0.
     0.51333  2967.60000   0.
     1.02667  2967.10000   0.
     2.05333  2966.03333   0.
     2.56667  2965.46667   0.
     3.59000  2964.63333   0.
     4.10000  2964.36667   0.
     5.12333  2963.83333   0.
     5.63667  2963.56667   0.
     6.66333  2963.06667   0.
     7.17667  2962.83333   0.
     8.20333  2962.23333   0.
     8.71667  2961.86667   0.
     9.74000  2961.23333   0.
    10.25000  2960.96667   0.
    11.27333  2960.46667   0.
    11.78667  2960.23333   0.
    12.81333  2959.76667   0.
    13.32667  2959.53333   0.
    14.35333  2959.10000   0.
    14.86667  2958.90000   0.
    15.89000  2958.50000   0.
    16.40000  2958.30000   0.
    17.42333  2957.83333   0.
    17.93667  2957.56667   0.
    18.96333  2957.06667   0.
    19.47667  2956.83333   0.
    20.50000  2956.33333   0.
    21.01000  2956.06667   0.
    22.03333  2955.53333   0.
    22.54667  2955.26667   0.
    23.57333  2954.76667   0.
    24.08667  2954.53333   0.
    25.11333  2954.03333   0.
    25.62667  2953.76667   0.
    26.65333  2953.26667   0.
    27.16667  2953.03333   0.
    28.19000  2952.50000   0.
    28.70000  2952.20000   0.
    29.72333  2951.63333   0.
    30.23667  2951.36667   0.
    31.26333  2950.80000   0.
    31.77667  2950.50000   0.
    32.80333  2949.96667   0.
    33.31667  2949.73333   0.
    34.34000  2949.23333   0.
    34.85000  2948.96667   0.
    35.87333  2948.50000   0.
    36.38667  2948.30000   0.
    37.41333  2947.83333   0.
    37.92667  2947.56667   0.
    38.95333  2947.10000   0.
    39.46667  2946.90000   0.
    40.49000  2946.50000   0.
    41.00000  2946.30000   0.
    42.02333  2945.90000   0.
    42.53667  2945.70000   0.
    43.56333  2945.36667   0.
    44.07667  2945.23333   0.
    45.10333  2944.90000   0.
    45.61667  2944.70000   0.
    46.64000  2944.36667   0.
    47.15000  2944.23333   0.
    48.17333  2943.93333   0.
    48.68667  2943.76667   0.
    49.71333  2943.53333   0.
    50.22667  2943.46667   0.
    51.25333  2943.26667   0.
    51.76667  2943.13333   0.
    52.79000  2942.83333   0.
    53.30000  2942.66667   0.
    54.32333  2942.36667   0.
    54.83667  2942.23333   0.
    55.86333  2941.93333   0.
    56.37667  2941.76667   0.
    57.40333  2941.40000   0.
    57.91667  2941.20000   0.
    58.94000  2940.86667   0.
    59.45000  2940.73333   0.
    60.47333  2940.43333   0.
    60.98667  2940.26667   0.
    62.01333  2939.90000   0.
    62.52667  2939.70000   0.
    63.55333  2939.36667   0.
    64.06667  2939.23333   0.
    65.34500  2939.15000   0.
    66.88000  2939.20000   0.
    68.42000  2939.15000   0.
    69.70333  2939.03333   0.
    70.21667  2938.96667   0.
    71.24000  2938.80000   0.
    71.75000  2938.70000   0.
    72.77333  2938.50000   0.
    73.28667  2938.40000   0.
    74.31333  2938.36667   0.
    74.82667  2938.43333   0.
    75.85333  2938.56667   0.
    76.36667  2938.63333   0.
    77.64500  2938.65000   0.
    78.92333  2938.66667   0.
    79.43667  2938.73333   0.
    80.72000  2938.85000   0.
    82.00333  2938.96667   0.
    82.51667  2939.03333   0.
    83.79500  2939.10000   0.
     0.08400  2959.57200   0.
     1.19600  2958.89800   0.
     2.30800  2958.22400   0.
     4.53000  2956.94200   0.
     5.64000  2956.33400   0.
     6.75000  2955.72600   0.
     7.86000  2955.11800   0.
    10.35750  2953.84750   0.
    11.74500  2953.18500   0.
    13.13250  2952.52250   0.
    15.90750  2951.24000   0.
    17.29500  2950.62000   0.
    18.68250  2950.00000   0.
    21.18200  2948.82200   0.
    22.29400  2948.26400   0.
    23.40600  2947.70600   0.
    24.51800  2947.14800   0.
    26.74000  2946.00600   0.
    27.85000  2945.42200   0.
    28.96000  2944.83800   0.
    30.07000  2944.25400   0.
    32.56750  2943.00000   0.
    33.95500  2942.33000   0.
    35.34250  2941.66000   0.
    38.11750  2940.39750   0.
    39.50500  2939.80500   0.
    40.89250  2939.21250   0.
    43.66750  2938.18250   0.
    45.05500  2937.74500   0.
    46.44250  2937.30750   0.
    49.22000  2936.51750   0.
    50.61000  2936.16500   0.
    52.00000  2935.81250   0.
    54.77750  2935.01750   0.
    56.16500  2934.57500   0.
    57.55250  2934.13250   0.
    60.32750  2933.25500   0.
    61.71500  2932.82000   0.
    63.10250  2932.38500   0.
    65.87750  2931.91500   0.
    67.26500  2931.88000   0.
    68.65250  2931.84500   0.
    71.43000  2931.69750   0.
    72.82000  2931.58500   0.
    74.21000  2931.47250   0.
    76.98750  2931.44500   0.
    78.37500  2931.53000   0.
    79.76250  2931.61500   0.
    82.53750  2931.75500   0.
    83.92500  2931.81000   0.
     6.60134  2937.05984   0.
    20.80435  2932.52560   0.
     3.78758  2946.36592   0.
    15.48523  2940.98228   0.
    29.30091  2934.50364   0.
    23.90594  2939.46561   0.
    40.87322  2931.62711   0.
     1.03219  2951.87344   0.
    10.83406  2946.32292   0.
    20.42668  2943.42459   0.
    48.80952  2930.83467   0.
    35.50309  2935.49258   0.
     7.54365  2949.73854   0.
    28.57967  2939.84283   0.
    15.90963  2945.83181   0.
    44.30452  2933.27820   0.
    -0.12722  2955.42655   0.
    24.47411  2943.04615   0.
     4.45051  2952.86019   0.
    40.01017  2935.22543   0.
    52.75593  2931.58993   0.
    13.75183  2934.27842   0.
    32.31862  2938.44653   0.
     0.40990  2931.04902   0.
    19.20708  2946.27332   0.
    57.19103  2930.55709   0.
    -0.97178  2947.27328   0.
    19.39705  2939.49643   0.
    11.08068  2950.12444   0.
    32.86215  2930.47012   0.
     7.41320  2941.82707   0.
    13.76382  2948.77946   0.
    27.17579  2942.79365   0.
     7.27112  2952.68663   0.
     2.71547  2954.94653   0.
    22.91159  2945.17994   0.
     2.00816  2941.86911   0.
    24.73355  2934.79062   0.
    47.86753  2934.00196   0.
    50.62083  2933.29089   0.
    60.15732  2930.28185   0.
    37.65425  2937.53830   0.
    44.64836  2929.77041   0.
    10.93416  2939.02064   0.
     4.26476  2949.76242   0.
    36.78915  2931.78219   0.
     7.36345  2946.13476   0.
    30.92470  2941.06806   0.
     6.19921  2931.10091   0.
    35.16618  2938.51604   0.
    16.36294  2929.87801   0.
    13.43632  2943.77014   0.
    42.64967  2935.50406   0.
    26.89596  2931.23775   0.
     1.59760  2936.73753   0.
    17.19200  2948.13905   0.
    -0.61497  2957.60981   0.
    26.49360  2937.36117   0.
     9.56799  2951.50953   0.
    17.55858  2943.77119   0.
    55.26825  2932.33039   0.
    22.03247  2936.46128   0.
    16.10828  2937.24515   0.
    22.48452  2941.40733   0.
    20.86327  2946.43955   0.
    29.71126  2937.35408   0.
    32.14062  2935.59882   0.
    45.26358  2935.44707   0.
    29.19256  2942.39482   0.
    25.22337  2944.48902   0.
    25.77440  2940.40763   0.
     5.12787  2951.33100   0.
     9.72036  2943.07255   0.
     0.63027  2944.64860   0.
     5.15669  2954.13690   0.
    33.80274  2940.56791   0.
     1.57076  2956.41210   0.
     9.31000  2947.97928   0.
     9.87726  2933.53233   0.
    53.60824  2932.85261   0.
    40.63972  2936.89193   0.
    13.47285  2946.23828   0.
    37.68088  2934.75035   0.
    46.32767  2931.88185   0.
    18.64740  2941.16071   0.
    13.09413  2950.32980   0.
    18.01744  2935.92389   0.
     0.55332  2948.73049   0.
     5.35766  2947.55011   0.
    42.44669  2933.52960   0.
    57.75733  2932.24094   0.
    23.68300  2931.83870   0.
    19.94397  2947.74183   0.
    61.81887  2931.15328   0.
[...]
POINT_DATA      1414
CELL_DATA      2568
SCALARS Resistivity(ohm.m) double 1
LOOKUP_TABLE default
          1134.80970          1728.78920          2402.59604          1085.82901           507.96525          2241.54466          1308.52646          1529.61296          1647.60611          2112.49694           828.42156          2091.70560           613.05905          2280.06265          2259.42599          1951.91119          1556.72655           507.48042           439.51408          2241.67804          1212.86576          1955.15995          1243.44135           584.23978          1843.95804           544.32759           273.44330          2200.11107          2226.84511          2379.09815           461.01316           562.22150          1644.52541           452.89924           382.61279          1708.06621           766.24130           948.19929          1196.33586          1569.58805          1823.17002           735.71759           426.04809          2330.07005           327.84133           480.61415          2925.98361           874.85156           643.17474           951.79091          2439.50281          1839.81746          1058.00293          1560.01215          2333.87651           899.18334           359.50473          2311.89437           412.72571          1121.11762           528.99213          2113.99464           501.31938          1900.97205           275.03077          1553.63064          2102.91835          2040.53252           296.06407           671.35201           538.27810           822.22697          2050.78435           391.38132           346.48060          2987.07423          1418.85766           497.44441           357.78024          2719.17723          2525.74724          1475.12163           396.54130           488.11941          2031.81542           738.96491           334.71613          2112.62429           898.37603          1901.30387          1047.82790           346.81818          2285.55101           393.60405          1818.58326          1991.24057           554.27851          1241.88373          2168.69197           992.74477          1533.84227           528.29325           618.27962           762.10476           953.85437          1683.26539           491.21648           984.33505          2202.89381          1320.46056           424.69563          1146.70661          2556.39568          1807.46595          2031.13967          1287.69982          1068.95665          1487.24046           413.57144           322.39595          2228.92763          1378.31165          3022.92024           739.77290           537.01150          2047.38946          2439.06392          3277.66177          1848.41510          1446.19828          2065.80395          1065.79405          1199.41948          2221.11676           859.15075          2894.51669           420.21535          1647.12378           985.39181          1342.42830          1578.46709           497.65076           592.61539          1360.45989          1631.32715           552.16338           422.34045          1453.55858          1920.90598           541.20954          2389.95181          1900.57911           957.78652           732.09465          2218.55072           313.44166          1644.61228           456.11455          2228.04967          1249.16994          1201.16809           488.15610          2353.79114           441.77385          2264.98961           543.96729          1458.77945          1862.36932          1921.63722          1702.95110           762.52771           794.38402           678.10796           284.42709           381.80621           977.07241           763.96890          3600.83932          2704.90633          1140.43785          2205.62972          1446.16810          1985.41417           727.46907           536.78016           937.10155           822.01196           616.70218           916.10444          2454.84484          1180.87444          2372.74618           546.40309          2590.06572           278.90880           465.92532          2501.12080          2092.50617          1214.88873           387.10282           312.09543           863.10166          1805.77094          1415.60861          1848.18156          1018.31786          3892.16564          2377.68534           367.31020          2329.51658          1284.03777           589.33823           389.35217           345.36402           556.11139          1167.24713          2337.73878           540.84142          1232.18040           486.72422           911.43794          1333.79919          1108.52255           360.28445           645.27153           592.97815           408.25409           501.01758          1268.81632           320.65381          1090.02674          2098.62115          1389.27639          3018.32216          2257.57885          1685.99462          2299.48031          1457.54960          1401.90378          1342.28894          2563.93971           673.58998           921.00476           390.93490          2388.42784           289.43590          1854.14922           457.12513           492.35970          2183.87893           278.85465          2089.16555          1739.61581           635.69929          1985.85879           986.26697           658.52235           676.81808           707.78918          2956.98206           576.06228          2265.99304           514.41704           406.71337           414.14759          1651.33858           364.07170          2297.89427           856.94913          2418.78585          1038.98561          2175.10564          2452.70235          2182.68069           513.79547          1599.00548          2307.82779           516.36002           732.64925           682.47703           525.83025          1359.33112           297.67502           941.20233           958.09280          2364.97942           432.07412          2260.49361           634.49872           487.23072           973.36358           330.66826          2240.78249           602.37850          1926.18546          2222.21746          1430.36042           503.63754           417.97209           599.93957          1024.43664           410.32054          2343.12149          2544.89037           444.19476          1807.52151          1281.34996          1500.47232          1940.22086           414.70796           634.86385           591.24250           294.25634          2259.69735           825.88854           357.16604           471.81157          1186.77438          2825.92365           520.09639          3340.01458           370.32464           883.85036           466.86285           497.85876          1170.59233           428.13862          1369.13831          1010.29328          2878.68448          1755.92891          2175.18187           468.35575          1585.66759           333.22543           369.46531           544.96256           596.59780          3222.09741           547.43409          2117.55562           457.10119          2115.95307           485.78621           548.53591          1782.95071          1206.70482          1018.04105           425.47923          2146.20082           491.54878          2442.32284           735.02896           406.32638           425.19754          2053.44374           464.57591          1582.97822           311.21104           363.50476           869.45315          1492.65768           939.17863           482.23562          1320.04740           461.77252           386.10422          2251.86321          1780.57993          2698.32505           511.40221          1272.48946          1379.20950          1042.23574           294.77329          2653.55868           377.04787           538.01626           466.93810          2000.91434          1332.44644           480.65428          1768.71703          2307.39889           288.80517          1314.60314           567.61602          1380.23168           405.23955          1519.39043           644.37666           323.00816          1400.21968          1375.39884           459.33972           854.15346           522.47139          1376.13666          1707.17407          1060.46177           562.66590           570.97426          1327.19332          1428.23311          1297.68008           842.32578           542.99182           907.18944          2238.19660          1641.37542          1501.67977          2147.83824          1056.61526           599.32681          1136.73943          2305.42291           708.97485           816.07455           723.69049          1749.96618          1024.88227           355.75845          2153.97036          1433.17137          1278.12212           284.92265          1664.24523           571.33888          1368.99660           512.09320          1321.99014           510.14398           465.31474          1976.90045          1055.35658          1442.17031          1491.76477           666.72760          1880.45830          1323.21657          3601.93866           572.16032          1153.74562          2116.51085          1114.72806          1108.87026          1260.77943          1183.66373          4196.83719           815.06454          3361.38256          1554.88678          1524.79018          1236.94645          1720.96376           829.99766          2145.58315           877.91430          1380.26327           485.23555          1872.41494          1307.84478           838.82935          1358.87560          2203.35486           811.90677           909.64949          1223.89122          1749.95453          1657.80127           850.22854          1791.59243           892.62507           289.05975          1903.90404          3919.09731          1100.21024           398.95932          1533.32308           742.55468          1071.54142          1987.21772           466.69620           549.33015          2162.86554          2646.06984          1294.57571           391.81328           715.17177           789.64310          1258.61915          1183.93077          1030.99928          1493.66342           762.04318          1442.66742           737.77966          1070.87303          2580.73985          1776.70927           694.17297           355.07763           596.92487          1281.80364           758.13771          1230.14881          3700.72881          1246.19626           340.70531           442.46387          1303.21761          1204.85397           902.09851           378.25380          3233.34183          1377.69694           348.52176          3370.90629          2203.32485           483.27833          1391.10638          1228.56539          1060.03577          1228.89428          1072.84404           499.49834          1625.82836          1413.30725          1432.69693          1328.20719           661.68065          1775.21470           514.88714          1252.68792           529.43613           491.28195           692.08854          1712.16319          1111.28916           886.31125           510.07486           371.26253          1687.82275          1149.46027          4511.27507          5139.96899          3593.09097          2008.07946          1924.17797          2405.07913          3784.69552          5224.11495           670.54956          4465.22437           366.94747          1068.10112          1356.63919           568.81425          4019.78973          4991.27826          1330.86396           429.10899          1870.98586          2556.35023           729.63828           772.63466          1401.17235          4431.90887          1215.77201          2462.81022          1174.47290           532.12515          1500.63912          1547.75624           447.46798          3424.80534           480.82878          1386.86497          5402.62206          4032.64907          1717.91538          6166.64125           318.16386           818.67433           453.15729          1959.23184          2560.58692          1569.38894          2908.69309          1639.17487          2350.89415           746.75903          1420.29528          1282.78750          1874.62044          7755.63237          3550.69456           923.94959          4797.65942          3817.33502           823.35772           619.78591          5006.11446          2404.97974          4408.73382          5906.09929          1427.03152           827.65168           692.18670           454.75591           775.64584          4688.53614          1447.47679           988.40303          1621.44351           357.78838          1028.99679          1654.74435          3967.49939           928.34158           961.47761           713.96989           676.27886          1662.79699          1390.93370           769.77774          3285.47650          2905.49369          3318.63808          3373.29651          5601.62858          4905.85154          2581.47481           505.64894          4600.57047          1184.78412          1481.99174           635.56579          1390.82877           856.84957           355.75435          7454.01591          4977.28684          1447.37861          1450.30823          2650.11176          2136.39250          2971.64561          3033.05037           880.82062          1124.05299           537.32248           950.12119           386.47825           486.37287           834.81482           563.17744          1851.98719          4932.38761          3460.52491          1408.06590          2462.59652          1314.19391          1636.54960          7615.68556          5035.56460          1775.29644           413.39507           609.47106          5188.30061           638.25094          3810.44353          4381.49612          1007.88677          2522.70840           635.36907          1076.91240          1022.59339          2415.19047          2515.87880          2635.43223           589.21431           440.03549          1111.04913           373.85370           572.98262           407.52457          3514.33961          5161.58797           472.12699          2584.82611           771.67815          2298.28030          1200.99819           774.82102           620.88969           616.60129           600.81020          1854.28899           714.42944          1366.57752           660.32505          2649.89979          1826.95162          4109.91524          2695.80470           532.56777           529.03723           354.95195          3085.97475           707.98129           667.48064          1265.07246          2455.07780           866.73795           785.36984           499.77901          1232.62322          1074.85342          1590.67121          1300.02683           572.69931           766.68078           668.37329          2406.68054          2157.51912          1134.77964          7367.56389          1015.91584           782.30769           899.21479          1400.52750          2371.94910          1536.41308          1585.69569          1404.54378          2461.34910           939.80699          7286.49618          1422.24889          2530.26414           719.52814          1116.40473          3771.29253          3188.72524           734.29087          1068.32847          3340.26215           520.25937           558.10291          1274.08184          2824.74183          6468.59871          1494.87209          6761.75092          1263.35565          1542.65644          1481.89115          1166.07165           436.72177           751.69635          2666.78901           713.49871          4271.61819           581.60404          3110.37731           909.90226           591.49322          1298.42618          2047.97422          2878.70301          4782.87222          2344.91690          1472.13044          1520.21476          1277.25529          7056.03112          7102.68497          1957.49201           962.06414          2625.23217           577.87181          1089.20973           811.46090          2676.57925          1107.41668           984.16507           539.13514           576.29976          3446.68272           968.71646           716.13889          6278.98394          4126.49587          2351.30216          1304.21384          8782.94378           753.64391          2436.67528          2963.08803          2024.24121          1060.05493          2794.84484          5645.41948          1705.07028           383.58181           663.08336           863.04845          1641.85413          1486.41825           627.43805           647.80569          7062.85639           695.70379          1209.87391          1942.57432          3862.81034          5216.38467           396.46894          1270.73335           812.99043          1030.78488          1739.79476           703.79522           823.04505          1597.11792           840.19875           557.90346           368.11648           760.18613          2873.78656           466.64961          2875.04404          1617.42496          2219.18714          1335.78051          1617.68403          1560.37118           380.37074          3553.29067          1414.40733          1870.02024          1840.74826          2195.14332          5549.51333          1010.60825          5272.46036           605.71529           735.66004          1562.57283          1126.58037          7176.70001          2452.69637           787.57777          1703.84672          4223.49151          3492.27225           594.14162          5058.55519          1344.81585          2752.38029          1097.80080          3782.67645          3726.81640           469.72178          3663.32157          4166.49861          2475.16382          5289.77331           841.96342           724.70746          1119.82976          2472.13114           480.26090          8082.48243          4432.05331           621.95435          1539.61354          1562.45199          1723.40380           833.82614          1096.46580         12187.31335           609.38010          2205.48394          1311.62858           512.61599           765.36410          2414.78549          4982.92635          6579.74953          1524.31496          2836.22064          2491.60761          4569.37279           676.33238          1323.82745          2063.38358          1835.77173          5122.09219           554.34468          1113.30213          2802.86558           784.71861          3600.17243          2242.61158          6468.37293          2157.11842          1211.48719          1142.92749           584.41745          5079.35223          6891.23687          2135.15005           382.67440           395.63240           768.19204           740.66491          6140.90326          1361.56459          2172.92772          3216.95755          2853.52465          5481.71085          5478.74931           360.49765           639.38509           737.39631          1191.38572           576.71898          4819.15902          3908.55702          1241.17757           799.72378           988.90329          2318.89421          3568.48614          2147.28953          1924.76259           827.90533          4864.55830          7268.09509           512.99159           678.61949          1723.14589          7031.11793          1915.57321          2871.61758          5528.03168           808.47198          1776.40066          4501.63796           575.88037          1443.44867          1036.05979          5127.82396           880.63911          1756.10761          3230.29209          5574.04213          4359.36371          5828.99466          4582.46564          4121.21603          1764.07967           766.86858          3901.96796          9237.56444           570.47823          2378.59670          2678.57952           298.64842          2400.83815          3374.08482          2662.85639           411.48246          4662.33260           779.37785          3368.38149          4064.65039          1825.07048           733.45468          2831.04848          3455.03299          5882.85177          6021.66238          5326.42375           601.57507           604.06297          1114.77238          5029.49068          1016.54653          2595.57366           745.63064           675.075