# vtk DataFile Version 3.0
Output from R2
ASCII
DATASET UNSTRUCTURED_GRID
POINTS       1414 double
     0.00000  2968.10000   0.
     1.54000  2966.60000   0.
     3.08000  2964.90000   0.
     4.61000  2964.10000   0.
     6.15000  2963.30000   0.
     7.69000  2962.60000   0.
     9.23000  2961.50000   0.
    10.76000  2960.70000   0.
    12.30000  2960.00000   0.
    13.84000  2959.30000   0.
    15.38000  2958.70000   0.
    16.91000  2958.10000   0.
    18.45000  2957.30000   0.
    19.99000  2956.60000   0.
    21.52000  2955.80000   0.
    23.06000  2955.00000   0.
    24.60000  2954.30000   0.
    26.14000  2953.50000   0.
    27.68000  2952.80000   0.
    29.21000  2951.90000   0.
    30.75000  2951.10000   0.
    32.29000  2950.20000   0.
    33.83000  2949.50000   0.
    35.36000  2948.70000   0.
    36.90000  2948.10000   0.
    38.44000  2947.30000   0.
    39.98000  2946.70000   0.
    41.51000  2946.10000   0.
    43.05000  2945.50000   0.
    44.59000  2945.10000   0.
    46.13000  2944.50000   0.
    47.66000  2944.10000   0.
    49.20000  2943.60000   0.
    50.74000  2943.40000   0.
    52.28000  2943.00000   0.
    53.81000  2942.50000   0.
    55.35000  2942.10000   0.
    56.89000  2941.60000   0.
    58.43000  2941.00000   0.
    59.96000  2940.60000   0.
    61.50000  2940.10000   0.
    63.04000  2939.50000   0.
    64.58000  2939.10000   0.
    66.11000  2939.20000   0.
    67.65000  2939.20000   0.
    69.19000  2939.10000   0.
    70.73000  2938.90000   0.
    72.26000  2938.60000   0.
    73.80000  2938.30000   0.
    75.34000  2938.50000   0.
    76.88000  2938.70000   0.
    78.41000  2938.60000   0.
    79.95000  2938.80000   0.
    81.49000  2938.90000   0.
    83.03000  2939.10000   0.
    84.56000  2939.10000   0.
     3.42000  2957.55000   0.
     8.97000  2954.51000   0.
    14.52000  2951.86000   0.
    20.07000  2949.38000   0.
    25.63000  2946.59000   0.
    31.18000  2943.67000   0.
    36.73000  2940.99000   0.
    42.28000  2938.62000   0.
    47.83000  2936.87000   0.
    53.39000  2935.46000   0.
    58.94000  2933.69000   0.
    64.49000  2931.95000   0.
    70.04000  2931.81000   0.
    75.60000  2931.36000   0.
    81.15000  2931.70000   0.
     0.51333  2967.60000   0.
     1.02667  2967.10000   0.
     2.05333  2966.03333   0.
     2.56667  2965.46667   0.
     3.59000  2964.63333   0.
     4.10000  2964.36667   0.
     5.12333  2963.83333   0.
     5.63667  2963.56667   0.
     6.66333  2963.06667   0.
     7.17667  2962.83333   0.
     8.20333  2962.23333   0.
     8.71667  2961.86667   0.
     9.74000  2961.23333   0.
    10.25000  2960.96667   0.
    11.27333  2960.46667   0.
    11.78667  2960.23333   0.
    12.81333  2959.76667   0.
    13.32667  2959.53333   0.
    14.35333  2959.10000   0.
    14.86667  2958.90000   0.
    15.89000  2958.50000   0.
    16.40000  2958.30000   0.
    17.42333  2957.83333   0.
    17.93667  2957.56667   0.
    18.96333  2957.06667   0.
    19.47667  2956.83333   0.
    20.50000  2956.33333   0.
    21.01000  2956.06667   0.
    22.03333  2955.53333   0.
    22.54667  2955.26667   0.
    23.57333  2954.76667   0.
    24.08667  2954.53333   0.
    25.11333  2954.03333   0.
    25.62667  2953.76667   0.
    26.65333  2953.26667   0.
    27.16667  2953.03333   0.
    28.19000  2952.50000   0.
    28.70000  2952.20000   0.
    29.72333  2951.63333   0.
    30.23667  2951.36667   0.
    31.26333  2950.80000   0.
    31.77667  2950.50000   0.
    32.80333  2949.96667   0.
    33.31667  2949.73333   0.
    34.34000  2949.23333   0.
    34.85000  2948.96667   0.
    35.87333  2948.50000   0.
    36.38667  2948.30000   0.
    37.41333  2947.83333   0.
    37.92667  2947.56667   0.
    38.95333  2947.10000   0.
    39.46667  2946.90000   0.
    40.49000  2946.50000   0.
    41.00000  2946.30000   0.
    42.02333  2945.90000   0.
    42.53667  2945.70000   0.
    43.56333  2945.36667   0.
    44.07667  2945.23333   0.
    45.10333  2944.90000   0.
    45.61667  2944.70000   0.
    46.64000  2944.36667   0.
    47.15000  2944.23333   0.
    48.17333  2943.93333   0.
    48.68667  2943.76667   0.
    49.71333  2943.53333   0.
    50.22667  2943.46667   0.
    51.25333  2943.26667   0.
    51.76667  2943.13333   0.
    52.79000  2942.83333   0.
    53.30000  2942.66667   0.
    54.32333  2942.36667   0.
    54.83667  2942.23333   0.
    55.86333  2941.93333   0.
    56.37667  2941.76667   0.
    57.40333  2941.40000   0.
    57.91667  2941.20000   0.
    58.94000  2940.86667   0.
    59.45000  2940.73333   0.
    60.47333  2940.43333   0.
    60.98667  2940.26667   0.
    62.01333  2939.90000   0.
    62.52667  2939.70000   0.
    63.55333  2939.36667   0.
    64.06667  2939.23333   0.
    65.34500  2939.15000   0.
    66.88000  2939.20000   0.
    68.42000  2939.15000   0.
    69.70333  2939.03333   0.
    70.21667  2938.96667   0.
    71.24000  2938.80000   0.
    71.75000  2938.70000   0.
    72.77333  2938.50000   0.
    73.28667  2938.40000   0.
    74.31333  2938.36667   0.
    74.82667  2938.43333   0.
    75.85333  2938.56667   0.
    76.36667  2938.63333   0.
    77.64500  2938.65000   0.
    78.92333  2938.66667   0.
    79.43667  2938.73333   0.
    80.72000  2938.85000   0.
    82.00333  2938.96667   0.
    82.51667  2939.03333   0.
    83.79500  2939.10000   0.
     0.08400  2959.57200   0.
     1.19600  2958.89800   0.
     2.30800  2958.22400   0.
     4.53000  2956.94200   0.
     5.64000  2956.33400   0.
     6.75000  2955.72600   0.
     7.86000  2955.11800   0.
    10.35750  2953.84750   0.
    11.74500  2953.18500   0.
    13.13250  2952.52250   0.
    15.90750  2951.24000   0.
    17.29500  2950.62000   0.
    18.68250  2950.00000   0.
    21.18200  2948.82200   0.
    22.29400  2948.26400   0.
    23.40600  2947.70600   0.
    24.51800  2947.14800   0.
    26.74000  2946.00600   0.
    27.85000  2945.42200   0.
    28.96000  2944.83800   0.
    30.07000  2944.25400   0.
    32.56750  2943.00000   0.
    33.95500  2942.33000   0.
    35.34250  2941.66000   0.
    38.11750  2940.39750   0.
    39.50500  2939.80500   0.
    40.89250  2939.21250   0.
    43.66750  2938.18250   0.
    45.05500  2937.74500   0.
    46.44250  2937.30750   0.
    49.22000  2936.51750   0.
    50.61000  2936.16500   0.
    52.00000  2935.81250   0.
    54.77750  2935.01750   0.
    56.16500  2934.57500   0.
    57.55250  2934.13250   0.
    60.32750  2933.25500   0.
    61.71500  2932.82000   0.
    63.10250  2932.38500   0.
    65.87750  2931.91500   0.
    67.26500  2931.88000   0.
    68.65250  2931.84500   0.
    71.43000  2931.69750   0.
    72.82000  2931.58500   0.
    74.21000  2931.47250   0.
    76.98750  2931.44500   0.
    78.37500  2931.53000   0.
    79.76250  2931.61500   0.
    82.53750  2931.75500   0.
    83.92500  2931.81000   0.
     6.60134  2937.05984   0.
    20.80435  2932.52560   0.
     3.78758  2946.36592   0.
    15.48523  2940.98228   0.
    29.30091  2934.50364   0.
    23.90594  2939.46561   0.
    40.87322  2931.62711   0.
     1.03219  2951.87344   0.
    10.83406  2946.32292   0.
    20.42668  2943.42459   0.
    48.80952  2930.83467   0.
    35.50309  2935.49258   0.
     7.54365  2949.73854   0.
    28.57967  2939.84283   0.
    15.90963  2945.83181   0.
    44.30452  2933.27820   0.
    -0.12722  2955.42655   0.
    24.47411  2943.04615   0.
     4.45051  2952.86019   0.
    40.01017  2935.22543   0.
    52.75593  2931.58993   0.
    13.75183  2934.27842   0.
    32.31862  2938.44653   0.
     0.40990  2931.04902   0.
    19.20708  2946.27332   0.
    57.19103  2930.55709   0.
    -0.97178  2947.27328   0.
    19.39705  2939.49643   0.
    11.08068  2950.12444   0.
    32.86215  2930.47012   0.
     7.41320  2941.82707   0.
    13.76382  2948.77946   0.
    27.17579  2942.79365   0.
     7.27112  2952.68663   0.
     2.71547  2954.94653   0.
    22.91159  2945.17994   0.
     2.00816  2941.86911   0.
    24.73355  2934.79062   0.
    47.86753  2934.00196   0.
    50.62083  2933.29089   0.
    60.15732  2930.28185   0.
    37.65425  2937.53830   0.
    44.64836  2929.77041   0.
    10.93416  2939.02064   0.
     4.26476  2949.76242   0.
    36.78915  2931.78219   0.
     7.36345  2946.13476   0.
    30.92470  2941.06806   0.
     6.19921  2931.10091   0.
    35.16618  2938.51604   0.
    16.36294  2929.87801   0.
    13.43632  2943.77014   0.
    42.64967  2935.50406   0.
    26.89596  2931.23775   0.
     1.59760  2936.73753   0.
    17.19200  2948.13905   0.
    -0.61497  2957.60981   0.
    26.49360  2937.36117   0.
     9.56799  2951.50953   0.
    17.55858  2943.77119   0.
    55.26825  2932.33039   0.
    22.03247  2936.46128   0.
    16.10828  2937.24515   0.
    22.48452  2941.40733   0.
    20.86327  2946.43955   0.
    29.71126  2937.35408   0.
    32.14062  2935.59882   0.
    45.26358  2935.44707   0.
    29.19256  2942.39482   0.
    25.22337  2944.48902   0.
    25.77440  2940.40763   0.
     5.12787  2951.33100   0.
     9.72036  2943.07255   0.
     0.63027  2944.64860   0.
     5.15669  2954.13690   0.
    33.80274  2940.56791   0.
     1.57076  2956.41210   0.
     9.31000  2947.97928   0.
     9.87726  2933.53233   0.
    53.60824  2932.85261   0.
    40.63972  2936.89193   0.
    13.47285  2946.23828   0.
    37.68088  2934.75035   0.
    46.32767  2931.88185   0.
    18.64740  2941.16071   0.
    13.09413  2950.32980   0.
    18.01744  2935.92389   0.
     0.55332  2948.73049   0.
     5.35766  2947.55011   0.
    42.44669  2933.52960   0.
    57.75733  2932.24094   0.
    23.68300  2931.83870   0.
    19.94397  2947.74183   0.
    61.81887  2931.15328   0.
[...]
POINT_DATA      1414
CELL_DATA      2568
SCALARS Resistivity(ohm.m) double 1
LOOKUP_TABLE default
          1153.06827          1767.23487          2278.82387          1097.18383           503.87857          2198.75690          1283.76649          1515.82515          1676.21164          2108.40295           803.09176          2087.27258           601.81465          2204.99567          2179.97013          1941.75643          1602.86682           491.47914           413.03607          2269.77328          1191.20012          1972.13458          1292.99042           545.56210          1853.61642           488.30893           292.82158          2167.28885          2155.62364          2277.41142           435.32349           507.17032          1689.07398           419.75293           401.09897          1655.21527           746.56057           928.10542          1241.87661          1517.90527          1826.10450           711.15466           411.81052          2235.72280           332.93484           443.00265          2827.91920           850.07847           626.11509           937.44131          2438.97470          1844.25994          1047.12589          1602.57767          2235.38634           875.03179           370.04381          2240.17379           388.45815          1118.66546           520.68808          2065.16634           493.40902          1913.31206           291.90071          1592.46982          2084.15464          2050.02337           310.56916           646.97719           484.75896           803.56712          2008.10145           398.22457           367.76733          2859.25164          1470.28176           476.66375           377.83917          2635.06200          2483.02425          1471.83685           374.15581           446.76209          2000.05167           714.86687           344.81010          2062.52009           882.51578          1930.73152          1042.25333           346.42413          2223.61673           411.33216          1746.00553          1962.85987           543.63185          1256.78284          2104.75676           980.18983          1589.62799           507.27885           586.94564           735.85486          1038.63413          1707.89706           479.41777           966.86428          2121.49310          1344.61259           442.29720          1133.39052          2437.70190          1849.32496          1993.45449          1340.18510          1055.53192          1539.85302           394.41427           336.09635          2227.46317          1430.81314          2905.97048           708.33112           519.79064          2033.77358          2333.04603          3171.24063          1882.12562          1423.45420          2062.26269          1078.61259          1248.14776          2162.28659           831.96166          2764.57241           435.14653          1678.68966           974.34695          1394.74958          1630.02693           478.97987           561.13596          1341.13536          1672.81953           526.32820           398.21472          1509.98093          1921.09400           485.36983          2292.14682          1890.38336           937.64393           709.13867          2195.26102           335.79496          1652.99789           425.70943          2151.83794          1301.54448          1206.83366           464.89157          2268.30422           427.46959          2214.67004           542.65281          1423.24700          1828.28202          1907.67728          1733.70197           738.43599           765.13400           644.49198           301.69837           361.47364           960.87877           736.86156          3519.27318          2579.84064          1144.88787          2181.20346          1458.53001          1991.44926           693.86780           520.91129           920.65271           796.47592           584.26539           896.71095          2354.91682          1226.82339          2289.34017           519.39384          2500.96997           294.91875           440.65284          2431.28346          2088.94933          1247.50132           369.26088           334.01554           844.17270          1846.69023          1470.21063          1831.69379          1015.74722          3850.55805          2282.06252           354.59467          2258.15517          1337.37783           561.34539           367.68541           361.01336           505.26777          1194.64634          2243.25645           489.40847          1262.18443           458.69343           894.27296          1364.51803          1110.57095           379.08097           619.75041           567.14650           423.70288           477.02641          1320.50978           325.40587          1079.74142          2043.35603          1444.35577          2891.94177          2249.61745          1708.49482          2282.16065          1479.33057          1439.13830          1396.49186          2457.94804           650.27329           905.09136           391.05798          2320.09804           311.21942          1885.45514           440.88833           489.02613          2161.11173           300.29045          2057.35876          1774.14665           604.80040          1986.13079           969.15965           640.47393           644.71941           678.50873          2830.97123           571.88316          2218.44674           499.99596           398.29298           390.24494          1688.06753           378.17761          2229.61860           836.08276          2305.74305          1026.48586          2142.57869          2350.93622          2154.55329           468.22388          1651.68142          2241.18864           478.79553           711.22609           661.21905           492.63373          1413.27276           318.59485           919.90463           939.24939          2262.44670           408.79353          2280.25238           612.92510           490.14295           957.92830           352.24998          2192.52576           580.92320          1932.85620          2202.10015          1475.70239           476.91970           413.70283           568.15299          1010.15341           385.25132          2348.93859          2428.27534           415.87270          1813.34055          1335.46924          1554.59809          1920.72361           428.91967           607.21041           580.61531           305.48036          2220.08155           802.68993           378.10760           462.72727          1181.78397          2702.34296           471.31494          3231.85411           359.35289           945.28305           476.18117           469.22878          1211.05287           407.35673          1421.89941          1011.16771          2753.10959          1796.16742          2148.60458           453.45191          1626.88311           331.42553           352.96557           515.26309           572.50949          3104.82865           493.68017          2082.40941           464.64491          2099.69905           457.61526           519.95142          1795.27960          1220.43308          1123.84114           404.64846          2118.94053           487.10823          2336.44157           704.01358           427.53900           400.00385          2031.29263           442.46434          1631.07402           316.73736           355.61833           848.36837          1539.29289           918.32617           471.34361          1375.16636           456.72622           407.26081          2235.52822          1819.27866          2576.78353           481.95742          1325.91658          1435.66722          1029.11450           305.94258          2534.69629           360.86175           492.58162           439.42683          1982.83304          1387.86911           483.09384          1780.24204          2260.73247           310.71955          1369.20134           549.24180          1400.38693           381.06699          1555.42929           623.68655           322.17761          1453.86317          1341.45885           466.78564           830.71256           509.59818          1371.40249          1732.91100          1049.63767           555.50977           553.55357          1376.70976          1476.72290          1341.87148           813.62193           486.15110           885.44658          2203.93771          1693.09143          1550.99926          2099.64984          1044.98013           569.90467          1120.32535          2341.64699           686.41847           855.08592           697.09351          1794.16217          1010.87616           344.13149          2120.69301          1467.14272          1312.31512           297.83046          1646.36670           557.62999          1425.00725           486.81850          1364.02734           489.41438           469.26607          1905.77584          1046.98846          1498.70627          1544.38581           645.87342          1872.67261          1312.25115          3524.96302           525.78828          1185.07863          2030.89969          1142.30178          1106.40319          1313.36155          1221.72813          4183.30683           785.56443          3256.90421          1609.10612          1531.54164          1227.51631          1713.56807           800.33735          2083.74262           854.78223          1406.89885           460.03817          1891.04444          1358.82717           812.50340          1364.92145          2171.61969           780.66302           888.71116          1223.97632          1715.10942          1706.88436           834.03831          1819.01338           866.72188           303.31636          1923.13692          3869.97763          1092.35050           377.99172          1563.67067           713.59158          1056.37865          1933.61911           439.52629           523.46009          2144.28531          2593.23781          1300.43732           412.43898           693.62212           758.77575          1306.39937          1183.01794          1038.35414          1538.83178           730.51639          1491.18908           704.53359          1066.85268          2470.15330          1800.22597           671.47280           376.77088           581.43675          1311.01044           725.21167          1252.36088          3620.24851          1285.97894           335.10766           416.00901          1313.79515          1227.61163           877.51733           372.01376          3116.14773          1428.31746           343.78506          3262.19758          2167.27229           454.60169          1438.05724          1270.74604          1063.21144          1234.25086          1074.02525           480.84981          1656.50894          1464.28287          1483.52087          1327.21652           628.41024          1799.80226           496.95524          1247.61275           513.00358           465.35236           658.41333          1760.35124          1117.52601           866.06905           486.77298           369.10188          1736.19073          1165.18062          4355.62057          4683.84110          3581.91935          2004.37132          1892.88705          2272.01722          3378.60396          5210.67312           617.82979          4444.84516           344.91017          1090.59441          1528.43515           513.69305          3753.01294          5032.34184          1297.90060           430.27573          1935.96438          2646.45659           736.55839           781.84515          1333.07937          4590.07924          1144.11350          2317.85248          1005.89156           480.00192          1568.41341          1444.72029           400.65987          3383.03814           474.99668          1276.67400          5327.90693          4185.66627          1668.09195          5632.61653           339.46648           808.86473           437.21102          1785.58031          2591.99625          1585.41235          2697.12924          1685.17604          2547.26019           762.75177          1577.50236          1252.91408          1763.27377          7706.84214          3641.78239           916.94630          5011.62135          3260.88338           810.57888           630.73862          4903.78476          2746.90922          4627.79575          5504.57486          1338.94635           804.50560           667.64810           455.93783           793.16007          4231.98057          1474.28533          1005.34818          1538.07645           379.91663          1145.32119          1667.60730          3784.89971           870.90081           849.20423           694.71524           660.48346          1598.15028          1337.33427           720.79454          3322.94697          2920.44097          3244.36776          3281.06782          6112.54830          4204.79235          2519.02626           541.31633          4184.64961          1153.92141          1462.55996           648.07284          1298.74111           797.73769           337.70116          6757.43943          5053.46536          1386.90482          1456.33381          2705.40328          2078.23381          3116.04968          3065.27601           874.64118          1037.95007           549.24471           848.53914           378.11600           487.14466           761.19880           528.86553          1884.70508          4162.28235          3461.74157          1372.81269          2207.87764          1317.72509          1479.42052          8200.73481          5160.17056          1876.20749           400.44084           573.68671          5217.03989           673.24033          3885.08966          4271.80685          1107.33507          2341.23557           589.11691           932.14102          1119.49170          2295.83070          2348.00191          2548.45018           534.91661           464.13671          1279.69051           390.01727           576.96981           399.14078          3616.02681          4978.28057           419.01247          2925.23797           797.80160          2563.50776          1347.13821           688.14057           614.85362           694.61419           566.36808          1817.26557           706.26123          1376.95847           667.20894          2455.47461          1722.24153          3427.13178          2702.86429           502.24529           560.98825           375.63465          3021.22623           708.75234           622.19786          1244.41928          2532.18658           784.78548           777.88754           510.29140          1230.99249           955.28902          1481.90582          1275.76447           536.30356           785.10785           708.90586          2549.70414          1859.68745          1245.79760          7757.43981          1094.26623           779.67342           880.58002          1229.33860          2245.12888          1472.78391          1575.85990          1411.10837          2750.83635           824.25195          6480.34404          1216.99706          2610.23096           739.97082          1286.95313          3502.61291          3389.16778           709.06974          1072.41900          3419.83531           474.45495           557.93753          1221.56460          2808.29202          5764.48575          1488.42021          7240.85796          1171.88729          1677.91092          1410.02135          1317.12295           434.48097           736.28686          2718.44571           693.59128          4085.94858           524.84259          2864.99895           790.42027           555.14202          1426.58903          2008.30336          2893.06188          4773.63227          2653.71079          1572.98749          1601.39100          1418.28116          6258.09009          7453.21456          1854.96013           924.99352          2745.20488           545.18624          1241.54406           806.52005          2536.23643          1269.19416          1059.32564           540.05747           535.92563          3537.55097           905.33447           725.58661          5805.82911          3980.73912          2410.67969          1241.72454          7301.98085           755.77616          2315.94790          2675.64386          2177.51302          1001.31452          3055.61656          5516.96524          1679.77695           422.16591           697.05968           843.14314          1598.12295          1569.83948           592.64371           717.19421          6251.00097           669.94823          1116.91610          1906.01929          4051.87269          4627.48725           404.60034          1265.57726           847.60111          1019.00118          1686.87494           697.91805           811.13766          1484.53044           784.38268           500.76066           369.09248           847.30602          2870.59745           447.31219          2835.34285          1605.37242          2148.82853          1330.86497          1813.23224          1471.49519           385.35385          3658.10513          1351.87309          1782.32584          1686.32951          2131.19834          4663.58987           982.98922          5625.71142           618.18058           711.27308          1555.00242          1288.01670          7656.62203          2492.94400           841.91910          1690.27127          4177.18439          3481.27865           619.08565          4405.09456          1330.32098          2949.61352          1105.07957          3545.31346          3714.47843           465.03005          3471.82307          4550.95324          2457.31920          4785.48553           812.12553           812.46535          1274.32830          2313.61096           432.12247          7335.69888          3944.53981           652.68923          1714.20063          1542.78474          1839.23424           778.64573          1255.19504         12569.29634           667.09433          2364.94142          1214.69177           475.61447           732.80545          2454.56073          4902.98740          5823.88886          1615.38984          2779.58887          2593.97494          4626.37615           828.19259          1293.91018          1925.19668          1701.59500          4948.53262           547.95404          1273.64959          2628.14547           794.65161          3936.08522          2159.62953          7055.57113          1915.50236          1015.21763          1213.49694           548.52460          4596.90301          7506.28499          1795.87984           323.17508           373.46114           789.76225           792.34211          6462.18101          1462.73846          2182.24121          3201.25452          2881.01388          5696.28884          4952.20798           365.89874           659.61953           746.43853          1169.02921           625.37874          4365.98543          3878.04981          1225.20371           689.34882          1087.86842          2390.52615          3537.94356          2373.59953          2015.52445           776.85142          4540.76870          6984.23010           463.35926           641.85636          1617.66320          7802.14407          1819.93931          3240.92719          5064.79496           718.94801          1721.97863          4323.80604           634.35721          1388.85135           920.57579          4831.39689           877.69711          1667.23968          3278.17606          5356.15910          3612.18780          6218.44503          4557.04985          4078.30669          1778.07821           741.77441          3353.43662          8363.54477           512.48753          2474.57525          2564.08611           318.17127          2320.66090          3143.54336          2458.81953           507.52616          4209.83580           785.46357          3437.84284          4126.31771          1780.67629           708.21852          3043.76226          3074.82150          5291.13862          6230.70432          5632.46248           618.42663           552.57646          1182.68351          4842.77917          1109.31771          2772.96356           738.02482           657.582