# vtk DataFile Version 3.0
Output from R2
ASCII
DATASET UNSTRUCTURED_GRID
POINTS       1414 double
     0.00000  2968.10000   0.
     1.54000  2966.60000   0.
     3.08000  2964.90000   0.
     4.61000  2964.10000   0.
     6.15000  2963.30000   0.
     7.69000  2962.60000   0.
     9.23000  2961.50000   0.
    10.76000  2960.70000   0.
    12.30000  2960.00000   0.
    13.84000  2959.30000   0.
    15.38000  2958.70000   0.
    16.91000  2958.10000   0.
    18.45000  2957.30000   0.
    19.99000  2956.60000   0.
    21.52000  2955.80000   0.
    23.06000  2955.00000   0.
    24.60000  2954.30000   0.
    26.14000  2953.50000   0.
    27.68000  2952.80000   0.
    29.21000  2951.90000   0.
    30.75000  2951.10000   0.
    32.29000  2950.20000   0.
    33.83000  2949.50000   0.
    35.36000  2948.70000   0.
    36.90000  2948.10000   0.
    38.44000  2947.30000   0.
    39.98000  2946.70000   0.
    41.51000  2946.10000   0.
    43.05000  2945.50000   0.
    44.59000  2945.10000   0.
    46.13000  2944.50000   0.
    47.66000  2944.10000   0.
    49.20000  2943.60000   0.
    50.74000  2943.40000   0.
    52.28000  2943.00000   0.
    53.81000  2942.50000   0.
    55.35000  2942.10000   0.
    56.89000  2941.60000   0.
    58.43000  2941.00000   0.
    59.96000  2940.60000   0.
    61.50000  2940.10000   0.
    63.04000  2939.50000   0.
    64.58000  2939.10000   0.
    66.11000  2939.20000   0.
    67.65000  2939.20000   0.
    69.19000  2939.10000   0.
    70.73000  2938.90000   0.
    72.26000  2938.60000   0.
    73.80000  2938.30000   0.
    75.34000  2938.50000   0.
    76.88000  2938.70000   0.
    78.41000  2938.60000   0.
    79.95000  2938.80000   0.
    81.49000  2938.90000   0.
    83.03000  2939.10000   0.
    84.56000  2939.10000   0.
     3.42000  2957.55000   0.
     8.97000  2954.51000   0.
    14.52000  2951.86000   0.
    20.07000  2949.38000   0.
    25.63000  2946.59000   0.
    31.18000  2943.67000   0.
    36.73000  2940.99000   0.
    42.28000  2938.62000   0.
    47.83000  2936.87000   0.
    53.39000  2935.46000   0.
    58.94000  2933.69000   0.
    64.49000  2931.95000   0.
    70.04000  2931.81000   0.
    75.60000  2931.36000   0.
    81.15000  2931.70000   0.
     0.51333  2967.60000   0.
     1.02667  2967.10000   0.
     2.05333  2966.03333   0.
     2.56667  2965.46667   0.
     3.59000  2964.63333   0.
     4.10000  2964.36667   0.
     5.12333  2963.83333   0.
     5.63667  2963.56667   0.
     6.66333  2963.06667   0.
     7.17667  2962.83333   0.
     8.20333  2962.23333   0.
     8.71667  2961.86667   0.
     9.74000  2961.23333   0.
    10.25000  2960.96667   0.
    11.27333  2960.46667   0.
    11.78667  2960.23333   0.
    12.81333  2959.76667   0.
    13.32667  2959.53333   0.
    14.35333  2959.10000   0.
    14.86667  2958.90000   0.
    15.89000  2958.50000   0.
    16.40000  2958.30000   0.
    17.42333  2957.83333   0.
    17.93667  2957.56667   0.
    18.96333  2957.06667   0.
    19.47667  2956.83333   0.
    20.50000  2956.33333   0.
    21.01000  2956.06667   0.
    22.03333  2955.53333   0.
    22.54667  2955.26667   0.
    23.57333  2954.76667   0.
    24.08667  2954.53333   0.
    25.11333  2954.03333   0.
    25.62667  2953.76667   0.
    26.65333  2953.26667   0.
    27.16667  2953.03333   0.
    28.19000  2952.50000   0.
    28.70000  2952.20000   0.
    29.72333  2951.63333   0.
    30.23667  2951.36667   0.
    31.26333  2950.80000   0.
    31.77667  2950.50000   0.
    32.80333  2949.96667   0.
    33.31667  2949.73333   0.
    34.34000  2949.23333   0.
    34.85000  2948.96667   0.
    35.87333  2948.50000   0.
    36.38667  2948.30000   0.
    37.41333  2947.83333   0.
    37.92667  2947.56667   0.
    38.95333  2947.10000   0.
    39.46667  2946.90000   0.
    40.49000  2946.50000   0.
    41.00000  2946.30000   0.
    42.02333  2945.90000   0.
    42.53667  2945.70000   0.
    43.56333  2945.36667   0.
    44.07667  2945.23333   0.
    45.10333  2944.90000   0.
    45.61667  2944.70000   0.
    46.64000  2944.36667   0.
    47.15000  2944.23333   0.
    48.17333  2943.93333   0.
    48.68667  2943.76667   0.
    49.71333  2943.53333   0.
    50.22667  2943.46667   0.
    51.25333  2943.26667   0.
    51.76667  2943.13333   0.
    52.79000  2942.83333   0.
    53.30000  2942.66667   0.
    54.32333  2942.36667   0.
    54.83667  2942.23333   0.
    55.86333  2941.93333   0.
    56.37667  2941.76667   0.
    57.40333  2941.40000   0.
    57.91667  2941.20000   0.
    58.94000  2940.86667   0.
    59.45000  2940.73333   0.
    60.47333  2940.43333   0.
    60.98667  2940.26667   0.
    62.01333  2939.90000   0.
    62.52667  2939.70000   0.
    63.55333  2939.36667   0.
    64.06667  2939.23333   0.
    65.34500  2939.15000   0.
    66.88000  2939.20000   0.
    68.42000  2939.15000   0.
    69.70333  2939.03333   0.
    70.21667  2938.96667   0.
    71.24000  2938.80000   0.
    71.75000  2938.70000   0.
    72.77333  2938.50000   0.
    73.28667  2938.40000   0.
    74.31333  2938.36667   0.
    74.82667  2938.43333   0.
    75.85333  2938.56667   0.
    76.36667  2938.63333   0.
    77.64500  2938.65000   0.
    78.92333  2938.66667   0.
    79.43667  2938.73333   0.
    80.72000  2938.85000   0.
    82.00333  2938.96667   0.
    82.51667  2939.03333   0.
    83.79500  2939.10000   0.
     0.08400  2959.57200   0.
     1.19600  2958.89800   0.
     2.30800  2958.22400   0.
     4.53000  2956.94200   0.
     5.64000  2956.33400   0.
     6.75000  2955.72600   0.
     7.86000  2955.11800   0.
    10.35750  2953.84750   0.
    11.74500  2953.18500   0.
    13.13250  2952.52250   0.
    15.90750  2951.24000   0.
    17.29500  2950.62000   0.
    18.68250  2950.00000   0.
    21.18200  2948.82200   0.
    22.29400  2948.26400   0.
    23.40600  2947.70600   0.
    24.51800  2947.14800   0.
    26.74000  2946.00600   0.
    27.85000  2945.42200   0.
    28.96000  2944.83800   0.
    30.07000  2944.25400   0.
    32.56750  2943.00000   0.
    33.95500  2942.33000   0.
    35.34250  2941.66000   0.
    38.11750  2940.39750   0.
    39.50500  2939.80500   0.
    40.89250  2939.21250   0.
    43.66750  2938.18250   0.
    45.05500  2937.74500   0.
    46.44250  2937.30750   0.
    49.22000  2936.51750   0.
    50.61000  2936.16500   0.
    52.00000  2935.81250   0.
    54.77750  2935.01750   0.
    56.16500  2934.57500   0.
    57.55250  2934.13250   0.
    60.32750  2933.25500   0.
    61.71500  2932.82000   0.
    63.10250  2932.38500   0.
    65.87750  2931.91500   0.
    67.26500  2931.88000   0.
    68.65250  2931.84500   0.
    71.43000  2931.69750   0.
    72.82000  2931.58500   0.
    74.21000  2931.47250   0.
    76.98750  2931.44500   0.
    78.37500  2931.53000   0.
    79.76250  2931.61500   0.
    82.53750  2931.75500   0.
    83.92500  2931.81000   0.
     6.60134  2937.05984   0.
    20.80435  2932.52560   0.
     3.78758  2946.36592   0.
    15.48523  2940.98228   0.
    29.30091  2934.50364   0.
    23.90594  2939.46561   0.
    40.87322  2931.62711   0.
     1.03219  2951.87344   0.
    10.83406  2946.32292   0.
    20.42668  2943.42459   0.
    48.80952  2930.83467   0.
    35.50309  2935.49258   0.
     7.54365  2949.73854   0.
    28.57967  2939.84283   0.
    15.90963  2945.83181   0.
    44.30452  2933.27820   0.
    -0.12722  2955.42655   0.
    24.47411  2943.04615   0.
     4.45051  2952.86019   0.
    40.01017  2935.22543   0.
    52.75593  2931.58993   0.
    13.75183  2934.27842   0.
    32.31862  2938.44653   0.
     0.40990  2931.04902   0.
    19.20708  2946.27332   0.
    57.19103  2930.55709   0.
    -0.97178  2947.27328   0.
    19.39705  2939.49643   0.
    11.08068  2950.12444   0.
    32.86215  2930.47012   0.
     7.41320  2941.82707   0.
    13.76382  2948.77946   0.
    27.17579  2942.79365   0.
     7.27112  2952.68663   0.
     2.71547  2954.94653   0.
    22.91159  2945.17994   0.
     2.00816  2941.86911   0.
    24.73355  2934.79062   0.
    47.86753  2934.00196   0.
    50.62083  2933.29089   0.
    60.15732  2930.28185   0.
    37.65425  2937.53830   0.
    44.64836  2929.77041   0.
    10.93416  2939.02064   0.
     4.26476  2949.76242   0.
    36.78915  2931.78219   0.
     7.36345  2946.13476   0.
    30.92470  2941.06806   0.
     6.19921  2931.10091   0.
    35.16618  2938.51604   0.
    16.36294  2929.87801   0.
    13.43632  2943.77014   0.
    42.64967  2935.50406   0.
    26.89596  2931.23775   0.
     1.59760  2936.73753   0.
    17.19200  2948.13905   0.
    -0.61497  2957.60981   0.
    26.49360  2937.36117   0.
     9.56799  2951.50953   0.
    17.55858  2943.77119   0.
    55.26825  2932.33039   0.
    22.03247  2936.46128   0.
    16.10828  2937.24515   0.
    22.48452  2941.40733   0.
    20.86327  2946.43955   0.
    29.71126  2937.35408   0.
    32.14062  2935.59882   0.
    45.26358  2935.44707   0.
    29.19256  2942.39482   0.
    25.22337  2944.48902   0.
    25.77440  2940.40763   0.
     5.12787  2951.33100   0.
     9.72036  2943.07255   0.
     0.63027  2944.64860   0.
     5.15669  2954.13690   0.
    33.80274  2940.56791   0.
     1.57076  2956.41210   0.
     9.31000  2947.97928   0.
     9.87726  2933.53233   0.
    53.60824  2932.85261   0.
    40.63972  2936.89193   0.
    13.47285  2946.23828   0.
    37.68088  2934.75035   0.
    46.32767  2931.88185   0.
    18.64740  2941.16071   0.
    13.09413  2950.32980   0.
    18.01744  2935.92389   0.
     0.55332  2948.73049   0.
     5.35766  2947.55011   0.
    42.44669  2933.52960   0.
    57.75733  2932.24094   0.
    23.68300  2931.83870   0.
    19.94397  2947.74183   0.
    61.81887  2931.15328   0.
[...]
POINT_DATA      1414
CELL_DATA      2568
SCALARS Resistivity(ohm.m) double 1
LOOKUP_TABLE default
          1147.64787          1775.42014          2265.04880          1091.68912           510.72314          2227.37954          1329.56228          1552.05842          1691.26816          2110.59998           789.79538          2088.21266           586.24914          2212.51552          2181.35899          1954.17201          1613.73798           494.40632           428.93254          2339.82878          1232.90091          1977.71210          1298.59652           545.04941          1862.30807           472.38841           299.64595          2191.76703          2148.23174          2265.32995           449.69262           491.49356          1697.41650           414.33880           409.72328          1702.80233           748.17949           917.29636          1247.36058          1575.40374          1836.08141           698.12087           424.30281          2226.87481           342.54525           435.76517          2809.21555           836.04624           611.11233           955.85737          2479.70855          1852.86766          1036.85212          1615.35382          2190.09977           865.69126           379.55250          2244.06302           403.84211          1109.27243           521.27404          2072.02882           497.56417          1922.94389           299.29581          1609.48176          2100.04311          2054.96522           318.57873           652.29158           469.46281           807.47304          2010.20873           408.48975           373.23814          2817.34090          1471.69389           478.80266           380.14630          2634.89551          2506.49154          1500.20579           387.66814           437.19302          2006.73135           717.31846           354.04540          2060.24608           893.41462          1936.29365          1032.62291           356.97479          2243.36037           416.24708          1789.68972          1967.97719           545.00460          1250.45004          2107.13436           970.46016          1594.92961           510.64820           585.39356           721.61674          1000.87551          1720.87346           490.45501           954.45312          2107.35437          1340.91171           448.66034          1159.23757          2416.28015          1854.63908          1995.14413          1355.65635          1074.60110          1550.36129           407.61307           344.67078          2286.24042          1433.53356          2873.34453           696.85685           522.03095          2046.23781          2316.42632          3121.91466          1887.51472          1467.35631          2072.03743          1075.17118          1257.59917          2176.34165           817.36419          2722.99104           440.52979          1690.78756           966.24906          1410.93769          1638.06351           487.56439           562.97610          1382.16244          1682.74436           528.28442           416.22948          1515.67501          1930.12013           472.05910          2264.18820          1897.35158           924.30221           701.40129          2233.31009           340.99444          1673.72254           422.98468          2146.36707          1312.02397          1200.55321           475.93437          2253.63742           449.87341          2217.78333           537.89991          1475.58857          1855.07696          1913.83875          1743.40098           728.20113           750.83500           640.11223           308.96961           374.63288           960.71709           736.06142          3443.32095          2547.63912          1135.52004          2219.07976          1472.75923          2001.03203           685.73953           520.41770           913.50817           793.26522           586.64321           892.07174          2352.96412          1234.26532          2296.58574           529.09147          2503.86946           302.36949           453.60076          2445.86876          2095.34018          1244.48794           382.45228           338.20055           845.46731          1851.96449          1481.06329          1854.21813          1008.90870          3756.79408          2241.38884           366.69059          2240.54705          1344.72666           559.43083           381.63985           369.65409           498.01598          1191.50288          2238.15935           475.31937          1257.35678           470.59470           899.81387          1360.71443          1101.14089           387.41557           609.22805           575.24872           426.08230           488.57968          1336.66718           334.18410          1085.93519          2046.32450          1448.94093          2841.15593          2297.29438          1722.30873          2323.87542          1487.67373          1437.76045          1401.55668          2452.53806           636.17547           899.78909           402.00814          2336.32053           316.99564          1892.79567           459.26998           493.68025          2162.34444           306.11163          2061.62258          1781.99194           608.86056          1996.55101           956.37055           626.41795           645.63221           666.19344          2780.80330           559.23969          2214.44296           503.09182           410.21523           408.10002          1695.31687           387.29938          2254.16784           832.93376          2250.56783          1026.72783          2137.61420          2331.44518          2182.65112           456.91295          1657.94837          2220.29648           472.09750           707.29283           648.76092           488.15592          1426.33334           325.24631           907.35652           929.50244          2271.91624           422.46237          2341.15193           600.37137           492.08718           962.69434           359.13697          2215.48481           589.38979          1942.08650          2248.30727          1475.48062           486.26142           425.15682           573.44361          1032.22729           402.42170          2397.88121          2412.52486           414.64869          1822.86366          1344.99345          1563.13161          1925.94899           432.45485           613.06157           566.83629           313.77328          2261.35601           794.04367           385.81158           479.76405          1191.09764          2659.34616           458.12578          3167.77020           368.87926           914.58791           477.24546           480.74695          1214.60461           427.82202          1436.71225          1006.42465          2722.46807          1803.17925          2164.43469           465.40129          1631.71410           340.75141           364.84598           524.35122           566.52986          3050.31479           482.88750          2097.33540           469.67839          2113.45314           458.68922           524.46900          1804.87057          1212.65381          1079.59794           425.05575          2140.60907           491.28485          2328.80721           702.49510           435.15155           414.64937          2043.34428           457.25768          1634.50876           325.94726           367.20580           844.10608          1553.59544           905.92830           482.82124          1385.60607           467.98849           415.18134          2291.02042          1825.18313          2542.50963           479.78788          1338.12627          1443.70026          1038.86331           314.15654          2517.85434           371.90625           481.53105           439.66126          1991.80814          1394.86451           488.19696          1791.15132          2288.06243           315.66068          1381.18220           543.92028          1403.67608           396.46703          1559.51932           630.91911           331.81210          1466.57298          1394.86236           470.22598           820.38830           520.55521          1397.79784          1743.62639          1041.77775           546.40966           563.35484          1378.74765          1495.07572          1341.70322           804.87759           470.91090           877.80131          2243.27677          1697.21735          1552.64487          2111.62712          1040.67423           569.99786          1152.43190          2403.70001           677.77782           831.50462           682.49681          1799.16148          1003.23950           355.67177          2141.99089          1467.70567          1308.09734           305.72077          1680.26868           548.58256          1434.94204           488.68563          1362.23116           491.94089           473.47154          1926.76812          1035.59131          1506.39863          1546.61796           631.34135          1879.93261          1343.40232          3452.89678           523.07119          1184.56451          2027.43610          1142.53486          1096.17973          1327.36632          1223.13634          4063.27991           779.17443          3199.12249          1612.65242          1552.92159          1252.53084          1739.66009           788.08265          2083.28195           848.70015          1406.78208           460.91154          1899.93078          1362.52973           807.13668          1378.27639          2179.80127           770.83526           880.33596          1228.80852          1752.58570          1710.76844           843.55832          1827.55731           853.59384           311.40695          1931.63470          3767.32718          1087.49703           389.56380          1570.79102           699.52091          1085.33375          1951.74373           452.71724           525.40486          2149.53198          2605.96949          1307.12617           419.22190           688.70272           745.77942          1309.95369          1182.00604          1034.84433          1554.98823           726.02413          1507.84755           699.18517          1056.64445          2442.18654          1809.38443           657.91034           383.17544           569.31344          1305.74230           717.31864          1245.47966          3525.25651          1285.23758           345.81930           430.68502          1316.28881          1221.13535           863.53150           383.60601          3053.16086          1446.50223           354.70889          3187.75575          2194.84768           452.96894          1437.80504          1272.18340          1056.14502          1232.30648          1065.50596           492.42529          1665.99345          1479.43342          1497.55035          1346.37455           628.43352          1810.13862           499.02866          1265.40086           523.89188           465.30834           655.15205          1765.30392          1109.02688           861.15952           487.31769           380.18497          1742.50584          1158.10327          4505.78548          4949.57921          3610.76782          2149.99096          2007.86376          2123.96500          3437.26733          5471.87727           637.34741          4773.01935           414.80272          1050.45243          1384.34429           516.12193          4062.83303          5526.80480          1368.59510           426.32475          1758.66981          2647.75738           793.17331           763.34739          1409.83447          4485.60035          1148.68266          2661.62050          1020.97912           477.56185          1546.19971          1513.22651           389.40198          3323.19435           502.75072          1387.05341          5737.41823          4085.46498          1710.58294          5989.54456           343.24417           828.37098           459.27906          1939.06475          2624.13164          1625.21801          2810.00950          1590.86137          2584.14805           845.62238          1419.24232          1306.04496          1662.43428          9686.44365          3618.64975           944.84559          4901.40468          3634.86668           835.03088           668.24944          5371.99796          2801.12243          4525.07704          5844.48414          1409.95595           784.85660           678.89543           466.66604           774.14191          4225.18694          1504.85468           970.86601          1605.82338           380.94416          1099.03320          1743.36380          3901.07356           877.88657           888.89323           691.74227           741.62253          1695.72029          1386.24030           723.91161          3290.57563          2888.65437          3197.29594          3286.67796          6014.43620          4616.17561          2475.94472           545.10049          4882.22816          1095.20210          1518.27590           665.13732          1381.53078           843.41631           389.16526          7312.29233          5314.36848          1460.01949          1438.08740          2713.21938          2138.47045          3187.29005          3210.71850           849.39829          1102.52974           582.43260           882.61791           376.67924           518.72850           846.29551           531.34605          1754.74874          4555.98537          3458.79651          1434.05955          2097.74632          1371.36852          1630.77595          8046.70212          5000.04401          1782.46966           396.81907           586.58639          5786.88014           658.07015          4066.11270          4430.96655          1064.50941          2253.97594           617.96191           945.07733          1076.63917          2119.61327          2195.16809          2583.62740           547.32421           468.60274          1224.70012           400.06825           592.70351           395.58227          3534.27743          4718.17846           405.70951          3004.83681           775.60434          2604.17025          1293.05612           700.93813           611.61965           705.88339           573.66710          1766.07222           698.12447          1344.26802           656.27303          2516.10886          1766.87396          3599.84038          2868.18384           573.12200           603.41186           381.26834          3011.11552           728.81144           651.03249          1242.18755          2608.42745           805.54757           824.42164           527.90784          1224.15964           983.72319          1399.40181          1328.31985           553.19123           810.06948           788.28999          2598.38129          1963.84738          1232.17508          8028.15276          1053.79598           766.13652           880.20089          1295.57568          2339.31479          1537.72177          1547.92273          1366.49537          2745.96833           791.57198          7523.69064          1315.83630          2641.59797           735.29051          1230.67731          3758.54193          3060.61176           691.24808          1060.84010          3367.36020           461.39622           564.40618          1296.69565          2983.59992          6251.01221          1421.88749          7054.18298          1117.04643          1625.12070          1485.07558          1263.64901           443.50218           822.62924          2699.94299           692.10007          3822.38006           532.35721          2964.96145           814.98624           560.11845          1397.63849          1911.54804          2854.57959          4877.80073          2719.48168          1510.59628          1585.97945          1325.84769          6495.73870          7177.40740          1866.71193           885.12102          2815.81286           559.67869          1188.70225           816.25716          2447.00477          1216.04857          1061.20100           568.09831           548.98438          3568.03997           876.01038           750.53970          6066.80502          3858.83457          2518.84394          1319.83033          7331.03827           776.17520          2307.63591          2758.19656          2173.07099           962.90570          3063.29593          5326.31387          1700.12236           415.78147           765.62147           848.76785          1621.05352          1561.96899           595.64316           728.03630          6695.12237           764.95038          1122.50265          1935.24019          3984.85488          5042.88900           412.99009          1306.24993           824.30622          1046.55729          1737.79467           687.06586           802.91594          1364.77952           883.08749           500.54003           371.58862           855.35160          2859.38557           464.48271          2828.89192          1644.50515          2201.63325          1284.83405          1781.53419          1545.30058           386.50499          3707.89066          1378.59442          1786.64068          1769.92473          2085.64758          5077.02548          1012.03109          5511.23988           634.58241           728.84238          1466.87434          1235.24278          7449.32976          2539.82036           836.03647          1754.87092          4082.46852          3508.71880           657.99491          4569.51457          1378.08801          2941.29829          1142.12057          3684.25578          3696.75104           492.61180          3481.58563          4193.60453          2478.47540          5024.64135           856.54919           827.91685          1221.86867          2275.24070           419.16465          7584.75791          4435.97201           682.81381          1687.15582          1513.97374          1822.99907           807.04785          1201.14113         11013.13767           688.24837          2338.82667          1309.40150           465.03384           710.02784          2476.19285          4920.36319          5807.41029          1653.85900          2807.84470          2570.09994          4494.32806           847.92372          1370.37039          1928.58250          1597.89266          5144.63025           580.51763          1220.84217          2684.44760           775.59204          3967.14398          2123.21319          6930.08229          1908.04100          1075.98763          1218.99730           556.15331          4834.92496          7370.94519          1917.30316           320.91366           371.10785           770.16751           776.90189          6262.41389          1404.50263          2109.60696          3166.07950          2664.17958          5762.87401          5244.36796           375.34934           687.97999           731.35039          1213.13476           635.84271          4414.08930          3920.91732          1220.51453           698.36405          1045.68885          2373.77800          3788.89091          2340.54528          2016.69112           759.73754          4426.92882          7325.24646           448.90084           657.69953          1665.21585          7941.53774          1789.54190          3288.33488          4987.65624           729.27600          1617.49134          4638.85113           646.72023          1455.00297           962.67530          4895.21575           865.59036          1721.52165          3109.40451          5660.98310          4210.79702          6076.47980          4892.06156          4145.14089          1862.27816           806.77801          3563.15217          8808.50076           515.39387          2500.45571          2483.27252           325.52968          2513.11631          3310.81379          2331.80823           509.39255          4384.22312           800.57337          3412.33851          4060.89126          1804.79598           751.00828          3071.90139          3370.87497          5763.15506          5989.25385          5504.85345           661.23105           573.16123          1146.87620          5201.95930          1092.75902          2722.85652           700.64085           690.992