# vtk DataFile Version 3.0
Output from R2
ASCII
DATASET UNSTRUCTURED_GRID
POINTS       1414 double
     0.00000  2968.10000   0.
     1.54000  2966.60000   0.
     3.08000  2964.90000   0.
     4.61000  2964.10000   0.
     6.15000  2963.30000   0.
     7.69000  2962.60000   0.
     9.23000  2961.50000   0.
    10.76000  2960.70000   0.
    12.30000  2960.00000   0.
    13.84000  2959.30000   0.
    15.38000  2958.70000   0.
    16.91000  2958.10000   0.
    18.45000  2957.30000   0.
    19.99000  2956.60000   0.
    21.52000  2955.80000   0.
    23.06000  2955.00000   0.
    24.60000  2954.30000   0.
    26.14000  2953.50000   0.
    27.68000  2952.80000   0.
    29.21000  2951.90000   0.
    30.75000  2951.10000   0.
    32.29000  2950.20000   0.
    33.83000  2949.50000   0.
    35.36000  2948.70000   0.
    36.90000  2948.10000   0.
    38.44000  2947.30000   0.
    39.98000  2946.70000   0.
    41.51000  2946.10000   0.
    43.05000  2945.50000   0.
    44.59000  2945.10000   0.
    46.13000  2944.50000   0.
    47.66000  2944.10000   0.
    49.20000  2943.60000   0.
    50.74000  2943.40000   0.
    52.28000  2943.00000   0.
    53.81000  2942.50000   0.
    55.35000  2942.10000   0.
    56.89000  2941.60000   0.
    58.43000  2941.00000   0.
    59.96000  2940.60000   0.
    61.50000  2940.10000   0.
    63.04000  2939.50000   0.
    64.58000  2939.10000   0.
    66.11000  2939.20000   0.
    67.65000  2939.20000   0.
    69.19000  2939.10000   0.
    70.73000  2938.90000   0.
    72.26000  2938.60000   0.
    73.80000  2938.30000   0.
    75.34000  2938.50000   0.
    76.88000  2938.70000   0.
    78.41000  2938.60000   0.
    79.95000  2938.80000   0.
    81.49000  2938.90000   0.
    83.03000  2939.10000   0.
    84.56000  2939.10000   0.
     3.42000  2957.55000   0.
     8.97000  2954.51000   0.
    14.52000  2951.86000   0.
    20.07000  2949.38000   0.
    25.63000  2946.59000   0.
    31.18000  2943.67000   0.
    36.73000  2940.99000   0.
    42.28000  2938.62000   0.
    47.83000  2936.87000   0.
    53.39000  2935.46000   0.
    58.94000  2933.69000   0.
    64.49000  2931.95000   0.
    70.04000  2931.81000   0.
    75.60000  2931.36000   0.
    81.15000  2931.70000   0.
     0.51333  2967.60000   0.
     1.02667  2967.10000   0.
     2.05333  2966.03333   0.
     2.56667  2965.46667   0.
     3.59000  2964.63333   0.
     4.10000  2964.36667   0.
     5.12333  2963.83333   0.
     5.63667  2963.56667   0.
     6.66333  2963.06667   0.
     7.17667  2962.83333   0.
     8.20333  2962.23333   0.
     8.71667  2961.86667   0.
     9.74000  2961.23333   0.
    10.25000  2960.96667   0.
    11.27333  2960.46667   0.
    11.78667  2960.23333   0.
    12.81333  2959.76667   0.
    13.32667  2959.53333   0.
    14.35333  2959.10000   0.
    14.86667  2958.90000   0.
    15.89000  2958.50000   0.
    16.40000  2958.30000   0.
    17.42333  2957.83333   0.
    17.93667  2957.56667   0.
    18.96333  2957.06667   0.
    19.47667  2956.83333   0.
    20.50000  2956.33333   0.
    21.01000  2956.06667   0.
    22.03333  2955.53333   0.
    22.54667  2955.26667   0.
    23.57333  2954.76667   0.
    24.08667  2954.53333   0.
    25.11333  2954.03333   0.
    25.62667  2953.76667   0.
    26.65333  2953.26667   0.
    27.16667  2953.03333   0.
    28.19000  2952.50000   0.
    28.70000  2952.20000   0.
    29.72333  2951.63333   0.
    30.23667  2951.36667   0.
    31.26333  2950.80000   0.
    31.77667  2950.50000   0.
    32.80333  2949.96667   0.
    33.31667  2949.73333   0.
    34.34000  2949.23333   0.
    34.85000  2948.96667   0.
    35.87333  2948.50000   0.
    36.38667  2948.30000   0.
    37.41333  2947.83333   0.
    37.92667  2947.56667   0.
    38.95333  2947.10000   0.
    39.46667  2946.90000   0.
    40.49000  2946.50000   0.
    41.00000  2946.30000   0.
    42.02333  2945.90000   0.
    42.53667  2945.70000   0.
    43.56333  2945.36667   0.
    44.07667  2945.23333   0.
    45.10333  2944.90000   0.
    45.61667  2944.70000   0.
    46.64000  2944.36667   0.
    47.15000  2944.23333   0.
    48.17333  2943.93333   0.
    48.68667  2943.76667   0.
    49.71333  2943.53333   0.
    50.22667  2943.46667   0.
    51.25333  2943.26667   0.
    51.76667  2943.13333   0.
    52.79000  2942.83333   0.
    53.30000  2942.66667   0.
    54.32333  2942.36667   0.
    54.83667  2942.23333   0.
    55.86333  2941.93333   0.
    56.37667  2941.76667   0.
    57.40333  2941.40000   0.
    57.91667  2941.20000   0.
    58.94000  2940.86667   0.
    59.45000  2940.73333   0.
    60.47333  2940.43333   0.
    60.98667  2940.26667   0.
    62.01333  2939.90000   0.
    62.52667  2939.70000   0.
    63.55333  2939.36667   0.
    64.06667  2939.23333   0.
    65.34500  2939.15000   0.
    66.88000  2939.20000   0.
    68.42000  2939.15000   0.
    69.70333  2939.03333   0.
    70.21667  2938.96667   0.
    71.24000  2938.80000   0.
    71.75000  2938.70000   0.
    72.77333  2938.50000   0.
    73.28667  2938.40000   0.
    74.31333  2938.36667   0.
    74.82667  2938.43333   0.
    75.85333  2938.56667   0.
    76.36667  2938.63333   0.
    77.64500  2938.65000   0.
    78.92333  2938.66667   0.
    79.43667  2938.73333   0.
    80.72000  2938.85000   0.
    82.00333  2938.96667   0.
    82.51667  2939.03333   0.
    83.79500  2939.10000   0.
     0.08400  2959.57200   0.
     1.19600  2958.89800   0.
     2.30800  2958.22400   0.
     4.53000  2956.94200   0.
     5.64000  2956.33400   0.
     6.75000  2955.72600   0.
     7.86000  2955.11800   0.
    10.35750  2953.84750   0.
    11.74500  2953.18500   0.
    13.13250  2952.52250   0.
    15.90750  2951.24000   0.
    17.29500  2950.62000   0.
    18.68250  2950.00000   0.
    21.18200  2948.82200   0.
    22.29400  2948.26400   0.
    23.40600  2947.70600   0.
    24.51800  2947.14800   0.
    26.74000  2946.00600   0.
    27.85000  2945.42200   0.
    28.96000  2944.83800   0.
    30.07000  2944.25400   0.
    32.56750  2943.00000   0.
    33.95500  2942.33000   0.
    35.34250  2941.66000   0.
    38.11750  2940.39750   0.
    39.50500  2939.80500   0.
    40.89250  2939.21250   0.
    43.66750  2938.18250   0.
    45.05500  2937.74500   0.
    46.44250  2937.30750   0.
    49.22000  2936.51750   0.
    50.61000  2936.16500   0.
    52.00000  2935.81250   0.
    54.77750  2935.01750   0.
    56.16500  2934.57500   0.
    57.55250  2934.13250   0.
    60.32750  2933.25500   0.
    61.71500  2932.82000   0.
    63.10250  2932.38500   0.
    65.87750  2931.91500   0.
    67.26500  2931.88000   0.
    68.65250  2931.84500   0.
    71.43000  2931.69750   0.
    72.82000  2931.58500   0.
    74.21000  2931.47250   0.
    76.98750  2931.44500   0.
    78.37500  2931.53000   0.
    79.76250  2931.61500   0.
    82.53750  2931.75500   0.
    83.92500  2931.81000   0.
     6.60134  2937.05984   0.
    20.80435  2932.52560   0.
     3.78758  2946.36592   0.
    15.48523  2940.98228   0.
    29.30091  2934.50364   0.
    23.90594  2939.46561   0.
    40.87322  2931.62711   0.
     1.03219  2951.87344   0.
    10.83406  2946.32292   0.
    20.42668  2943.42459   0.
    48.80952  2930.83467   0.
    35.50309  2935.49258   0.
     7.54365  2949.73854   0.
    28.57967  2939.84283   0.
    15.90963  2945.83181   0.
    44.30452  2933.27820   0.
    -0.12722  2955.42655   0.
    24.47411  2943.04615   0.
     4.45051  2952.86019   0.
    40.01017  2935.22543   0.
    52.75593  2931.58993   0.
    13.75183  2934.27842   0.
    32.31862  2938.44653   0.
     0.40990  2931.04902   0.
    19.20708  2946.27332   0.
    57.19103  2930.55709   0.
    -0.97178  2947.27328   0.
    19.39705  2939.49643   0.
    11.08068  2950.12444   0.
    32.86215  2930.47012   0.
     7.41320  2941.82707   0.
    13.76382  2948.77946   0.
    27.17579  2942.79365   0.
     7.27112  2952.68663   0.
     2.71547  2954.94653   0.
    22.91159  2945.17994   0.
     2.00816  2941.86911   0.
    24.73355  2934.79062   0.
    47.86753  2934.00196   0.
    50.62083  2933.29089   0.
    60.15732  2930.28185   0.
    37.65425  2937.53830   0.
    44.64836  2929.77041   0.
    10.93416  2939.02064   0.
     4.26476  2949.76242   0.
    36.78915  2931.78219   0.
     7.36345  2946.13476   0.
    30.92470  2941.06806   0.
     6.19921  2931.10091   0.
    35.16618  2938.51604   0.
    16.36294  2929.87801   0.
    13.43632  2943.77014   0.
    42.64967  2935.50406   0.
    26.89596  2931.23775   0.
     1.59760  2936.73753   0.
    17.19200  2948.13905   0.
    -0.61497  2957.60981   0.
    26.49360  2937.36117   0.
     9.56799  2951.50953   0.
    17.55858  2943.77119   0.
    55.26825  2932.33039   0.
    22.03247  2936.46128   0.
    16.10828  2937.24515   0.
    22.48452  2941.40733   0.
    20.86327  2946.43955   0.
    29.71126  2937.35408   0.
    32.14062  2935.59882   0.
    45.26358  2935.44707   0.
    29.19256  2942.39482   0.
    25.22337  2944.48902   0.
    25.77440  2940.40763   0.
     5.12787  2951.33100   0.
     9.72036  2943.07255   0.
     0.63027  2944.64860   0.
     5.15669  2954.13690   0.
    33.80274  2940.56791   0.
     1.57076  2956.41210   0.
     9.31000  2947.97928   0.
     9.87726  2933.53233   0.
    53.60824  2932.85261   0.
    40.63972  2936.89193   0.
    13.47285  2946.23828   0.
    37.68088  2934.75035   0.
    46.32767  2931.88185   0.
    18.64740  2941.16071   0.
    13.09413  2950.32980   0.
    18.01744  2935.92389   0.
     0.55332  2948.73049   0.
     5.35766  2947.55011   0.
    42.44669  2933.52960   0.
    57.75733  2932.24094   0.
    23.68300  2931.83870   0.
    19.94397  2947.74183   0.
    61.81887  2931.15328   0.
[...]
POINT_DATA      1414
CELL_DATA      2568
SCALARS Resistivity(ohm.m) double 1
LOOKUP_TABLE default
          1066.48411          1654.78092          2425.17339          1022.14805           537.93704          2312.35218          1313.18450          1511.24699          1633.49069          2058.38565           802.10441          2036.20716           616.18437          2212.98925          2175.15099          1910.48630          1505.12178           508.58971           443.91853          2464.55315          1220.67899          1888.25593          1190.58580           590.08882          1776.88185           497.14856           279.17814          2233.02601          2148.91783          2390.84694           467.95407           515.34914          1575.23096           429.09887           380.13409          1715.58519           774.93777           891.05675          1150.23231          1583.64589          1794.00847           723.43552           414.05923          2228.29662           323.16087           451.56223          2785.56190           838.74238           641.73137           959.94062          2533.26166          1777.34246          1001.59249          1520.32248          2300.47430           846.84809           353.65417          2337.20637           417.85898          1054.76370           552.40812          2044.52023           505.13585          1841.00429           279.45484          1547.03293          2073.14634          1977.72768           295.71029           642.14729           487.68536           827.54573          1977.81041           382.83939           350.98563          2809.88201          1335.14138           496.26232           360.42747          2636.89079          2537.45451          1444.41026           397.43103           450.31602          1961.75199           704.20607           330.28408          2050.25407           903.44578          1823.82557           981.10194           340.11226          2350.57265           398.02094          1831.49311          1921.36988           548.96129          1164.28766          2088.47280           931.09010          1454.06617           540.45341           607.36721           743.38186          1036.33353          1652.41311           517.94406           933.50073          2185.59043          1238.86178           429.43531          1140.01516          2429.10733          1723.05369          1967.87394          1283.62561          1062.63693          1434.24303           404.54445           319.87049          2411.06786          1301.26057          2843.97000           713.30435           533.93274          1997.44942          2327.87285          3063.22564          1769.23007          1440.96968          2016.65668          1008.83903          1170.36935          2176.74694           820.70325          2735.23232           425.24387          1605.75392           925.76171          1337.35608          1507.64474           514.96705           583.34814          1354.86086          1570.36968           555.40362           430.53654          1380.66604          1852.72959           510.80957          2372.23320          1837.07625           905.40507           729.56239          2284.47132           318.06852          1596.52668           440.83187          2139.61845          1218.21425          1130.95745           500.57635          2272.38631           466.31384          2260.29335           567.12167          1465.66003          1846.82274          1883.00781          1642.02135           752.15463           762.99416           656.92295           286.25636           379.64066           955.23339           726.44644          3398.02168          2566.80234          1066.69290          2281.52432          1390.94714          1923.59806           700.28247           551.46567           882.02555           778.68486           599.70607           894.76313          2359.22539          1145.19685          2306.47903           529.51235          2513.57400           281.56081           456.66154          2467.59742          2041.78075          1143.15891           380.39516           316.70591           859.12122          1721.51994          1371.86495          1818.57637           958.01431          3706.47061          2341.78062           360.64091          2305.42498          1233.42754           586.62280           385.68015           342.48136           544.95375          1100.45767          2237.08989           493.41117          1155.20627           488.68648           907.63769          1249.60463          1036.72961           358.68219           637.63382           570.78276           409.97790           486.73417          1272.67227           323.74881          1062.82553          2079.38413          1316.70343          2864.48445          2366.66022          1621.52926          2380.78183          1388.61304          1315.45709          1275.87010          2458.60294           664.69717           869.16325           381.08628          2357.78968           293.91450          1776.85223           480.85519           496.75242          2145.53850           284.19039          2055.87167          1661.65621           611.95375          1924.48692           927.79730           657.29057           649.76279           689.02919          2823.56938           588.59469          2243.57149           514.40149           395.41343           421.94251          1571.00551           359.49881          2391.92257           811.24084          2374.30085          1008.62599          2133.87408          2353.43118          2216.76372           472.36319          1520.71916          2274.95198           491.08390           735.99385           679.18035           508.32340          1333.84316           300.66420           886.29065           920.01762          2436.53362           424.61603          2436.20550           630.34794           486.27833           959.71639           333.25269          2233.51480           578.46940          1858.07099          2347.38668          1342.66953           508.46853           406.04896           581.65660          1027.52696           415.08605          2465.80647          2418.07023           433.06389          1757.99556          1241.28100          1437.21459          1887.21693           417.86492           609.51256           597.71219           293.79414          2393.53304           809.90926           357.79693           502.02646          1151.47037          2704.75290           472.18104          3150.03669           370.76870           950.19077           465.03643           492.09206          1121.41624           443.72483          1353.48870           954.84121          2710.48210          1677.05809          2169.87554           453.46581          1500.38948           333.16832           366.46106           531.34481           595.89061          3025.85159           527.10341          2076.37506           462.07123          2086.52773           479.70108           548.40556          1727.63961          1128.72223          1115.23497           439.32320          2142.38907           494.81321          2332.80790           701.19087           408.68007           421.64667          1999.64707           479.07012          1493.98108           308.52777           355.87388           855.63101          1466.61207           897.10582           466.23364          1281.40145           447.47862           386.85916          2435.97985          1698.45548          2576.32949           499.69436          1248.67337          1322.52828          1026.54394           297.89752          2518.26551           376.11137           500.63116           459.87574          1935.39938          1274.37706           485.95952          1732.14467          2321.16121           294.38425          1285.34386           575.58566          1308.25984           404.14568          1436.44219           617.42840           320.27014          1368.95194          1386.33656           461.60998           830.55821           503.91196          1348.22893          1654.32551          1010.62362           577.94849           549.09482          1253.51363          1430.11628          1222.32157           796.95338           502.69556           854.41293          2350.11244          1553.66597          1412.94079          2094.11119          1015.53603           611.32734          1139.19498          2490.75952           708.36774           866.92657           706.92036          1663.84922           981.58835           350.69537          2142.12391          1348.94962          1197.47175           286.68051          1644.55541           580.45704          1322.60395           508.06409          1241.01268           508.74569           469.25565          1977.79175           989.08370          1377.61943          1404.89468           660.78174          1824.78858          1306.17642          3381.97465           570.19474          1094.66406          2110.64906          1062.26905          1039.21156          1249.69530          1126.26066          4061.41548           772.36940          3148.13669          1469.05781          1479.57863          1219.22957          1688.13354           789.56636          2063.86777           828.44933          1300.05980           480.57362          1801.04479          1240.43517           793.36109          1310.05856          2187.58565           771.86407           881.84666          1175.73279          1741.62096          1568.94160           860.01600          1719.80021           845.05042           293.91970          1832.59838          3762.22480          1051.63925           399.61788          1456.92255           720.12461          1077.75263          1977.25512           461.02742           543.66023          2126.95434          2620.66611          1240.36742           395.51884           719.54240           756.65711          1197.15320          1130.16808           976.94425          1479.66503           725.81203          1433.12300           705.98330          1002.18094          2477.17715          1709.40574           686.94346           358.71367           600.88490          1199.59799           725.03738          1150.43066          3557.48211          1175.74610           335.77445           440.77039          1239.51682          1127.74968           855.75553           368.95565          3068.01202          1381.82784           342.01579          3225.30240          2218.03462           472.24304          1306.26688          1165.26949           995.63978          1165.67855          1004.89340           483.24469          1551.24278          1396.71664          1407.99018          1292.50291           638.40846          1706.71601           514.54024          1222.94683           510.46781           484.76853           666.57470          1626.46280          1039.85692           837.05854           505.67104           362.54104          1605.92582          1076.53103          4518.16872          5062.09371          3524.21409          2071.92346          1985.06481          2240.80638          3580.13159          5195.08906           643.35472          4764.57428           393.24809          1060.96594          1319.20231           552.04155          4264.98737          5711.03678          1351.65740           417.53166          1786.40762          2614.00980           775.77288           736.79573          1437.79717          4222.77928          1153.95385          2563.04548          1085.12694           511.91204          1502.97196          1569.78459           402.39839          3196.41318           508.03753          1405.54755          5474.73169          3822.70061          1662.75689          6112.42459           323.61402           852.96735           471.23862          1948.54782          2654.92366          1631.73114          2987.09757          1615.16150          2583.27594           821.00975          1372.96400          1303.52583          1651.92621          9888.34167          3471.40704           965.82293          4635.16597          3895.13323           840.42849           655.00478          5595.00169          2750.30936          4231.57186          5933.76080          1447.26937           805.88886           684.29321           465.69508           804.41981          4410.53912          1490.00649           985.88734          1648.53958           359.84956          1116.06441          1715.14618          3905.04308           892.61183           939.34547           724.58907           743.56085          1669.15392          1410.47907           743.20185          3158.69457          2844.62116          3107.43032          3253.28631          5623.34986          4811.17428          2402.50087           512.85979          4832.12388          1178.49534          1532.51900           648.46248          1415.69367           878.45879           372.26867          7525.02668          5265.44749          1488.80769          1456.42676          2696.46582          2093.47168          3060.76082          3040.16038           869.57095          1128.05469           555.56095           898.80160           376.26014           521.44089           849.44388           550.43898          1800.52169          4911.75975          3419.32501          1445.29816          2284.13357          1369.24053          1653.06264          7862.96241          4959.22851          1801.54683           393.81890           591.72218          6009.13989           621.69738          3939.89771          4463.90225          1080.78413          2422.20476           630.82390          1010.42745          1089.08635          2226.59148          2305.74695          2509.62078           579.86911           449.72559          1233.70979           382.96633           595.95522           389.97023          3326.17513          4991.41949           423.11523          2947.97808           738.65698          2585.01914          1283.88921           727.68946           605.06849           648.01585           587.97118          1840.90421           687.39530          1332.73348           635.68463          2529.03537          1849.02214          3849.52525          2811.73619           577.83861           562.65621           361.48816          2972.20235           712.57194           665.35004          1251.22497          2691.99207           810.37503           822.68407           518.17161          1218.48269          1017.47541          1416.59324          1326.98195           564.22398           795.09531           744.92389          2631.65623          2242.98336          1200.12866          7868.76817          1065.72870           772.84130           905.85794          1367.02853          2435.46616          1559.32422          1539.76459          1335.04895          2641.35680           825.58587          7549.48812          1415.35465          2660.12330           733.75822          1242.47909          3814.38969          3161.26640           720.42155          1062.21717          3202.48757           462.24217           542.55603          1295.71991          2913.00906          6509.09471          1414.08057          6888.34016          1136.35780          1651.58217          1517.47542          1257.74395           446.34106           806.03866          2639.73634           724.17991          4123.68630           570.74687          2961.03883           839.10367           591.48838          1364.52658          1878.98478          2765.84972          4748.88964          2713.34723          1488.02765          1513.02369          1264.70025          7043.55843          7187.21588          1968.05710           957.03393          2774.25720           567.88783          1197.92286           850.37827          2406.38090          1220.36505          1032.59977           565.79753           569.19787          3542.72874           894.40881           745.98027          6093.97685          3933.57706          2424.80988          1330.95555          8242.49190           789.17268          2308.26094          2891.06644          2086.11838           981.88618          2947.64576          5710.11998          1707.20240           393.78317           727.82774           879.19304          1661.54846          1499.77219           609.66354           668.23272          6938.52479           756.92392          1145.52395          1891.03070          3754.43555          5301.66834           409.57571          1316.66028           856.47680          1070.58627          1776.47621           716.03257           825.22734          1362.37891           858.82688           543.56975           370.39357           790.61321          2818.73974           479.16167          2804.69901          1648.05447          2306.16214          1280.49285          1717.85794          1591.00158           380.40389          3601.71860          1359.42446          1877.69550          1825.82410          2142.29091          5348.20808           992.76523          5194.76212           608.33241           737.59212          1521.81429          1234.11992          7331.72148          2595.25805           834.57125          1677.28263          4108.99452          3427.19921           645.36762          5097.83186          1376.50170          2822.58484          1098.37281          3629.64704          3630.15722           503.73897          3538.46070          4162.41484          2461.70429          4977.33009           872.32477           769.05200          1222.18700          2451.13371           428.61614          7780.87927          4564.94499           672.03572          1622.56452          1488.35166          1769.58455           830.97862          1211.47723         11614.38306           652.44374          2229.14453          1328.02038           461.45179           754.70764          2391.86461          4800.21689          6261.47837          1556.27254          2905.88442          2505.90421          4442.76345           756.42607          1364.36603          2001.80396          1599.77105          5071.81055           563.71265          1222.96957          2633.91010           802.45529          3810.21290          2112.83258          6606.46663          2089.87890          1202.87101          1171.47318           581.66093          4794.17272          7087.79401          2221.12315           340.44408           381.10523           782.40883           728.74328          6176.34667          1388.58311          2077.89014          3062.18590          2693.03897          5589.29443          5246.45454           367.19417           660.25716           762.94467          1205.66701           615.18091          4622.94991          3813.03443          1228.16744           734.39442          1071.39824          2401.99589          3728.87166          2234.96911          1947.50782           775.62001          4846.12954          7269.13384           456.47944           672.48104          1742.76026          7573.18437          1820.76287          2987.70897          5152.39691           757.49153          1632.51111          4801.54877           597.75108          1469.29267          1027.63890          5110.66186           879.72519          1778.84634          3232.57889          5791.17629          4470.12810          5839.77880          4654.89415          4061.93978          1838.37331           820.59619          3844.77210          9091.62321           554.94542          2400.84605          2531.10628           306.50579          2459.72491          3206.34745          2397.76333           461.68571          4640.06464           788.77971          3273.71114          3928.99637          1758.26280           756.23903          2947.32855          3547.42277          5939.35949          6022.73669          5248.66402           644.45103           595.24812          1166.10431          5327.98180          1079.35064          2686.98217           730.97347           687.416