# vtk DataFile Version 3.0
Output from R2
ASCII
DATASET UNSTRUCTURED_GRID
POINTS       1414 double
     0.00000  2968.10000   0.
     1.54000  2966.60000   0.
     3.08000  2964.90000   0.
     4.61000  2964.10000   0.
     6.15000  2963.30000   0.
     7.69000  2962.60000   0.
     9.23000  2961.50000   0.
    10.76000  2960.70000   0.
    12.30000  2960.00000   0.
    13.84000  2959.30000   0.
    15.38000  2958.70000   0.
    16.91000  2958.10000   0.
    18.45000  2957.30000   0.
    19.99000  2956.60000   0.
    21.52000  2955.80000   0.
    23.06000  2955.00000   0.
    24.60000  2954.30000   0.
    26.14000  2953.50000   0.
    27.68000  2952.80000   0.
    29.21000  2951.90000   0.
    30.75000  2951.10000   0.
    32.29000  2950.20000   0.
    33.83000  2949.50000   0.
    35.36000  2948.70000   0.
    36.90000  2948.10000   0.
    38.44000  2947.30000   0.
    39.98000  2946.70000   0.
    41.51000  2946.10000   0.
    43.05000  2945.50000   0.
    44.59000  2945.10000   0.
    46.13000  2944.50000   0.
    47.66000  2944.10000   0.
    49.20000  2943.60000   0.
    50.74000  2943.40000   0.
    52.28000  2943.00000   0.
    53.81000  2942.50000   0.
    55.35000  2942.10000   0.
    56.89000  2941.60000   0.
    58.43000  2941.00000   0.
    59.96000  2940.60000   0.
    61.50000  2940.10000   0.
    63.04000  2939.50000   0.
    64.58000  2939.10000   0.
    66.11000  2939.20000   0.
    67.65000  2939.20000   0.
    69.19000  2939.10000   0.
    70.73000  2938.90000   0.
    72.26000  2938.60000   0.
    73.80000  2938.30000   0.
    75.34000  2938.50000   0.
    76.88000  2938.70000   0.
    78.41000  2938.60000   0.
    79.95000  2938.80000   0.
    81.49000  2938.90000   0.
    83.03000  2939.10000   0.
    84.56000  2939.10000   0.
     3.42000  2957.55000   0.
     8.97000  2954.51000   0.
    14.52000  2951.86000   0.
    20.07000  2949.38000   0.
    25.63000  2946.59000   0.
    31.18000  2943.67000   0.
    36.73000  2940.99000   0.
    42.28000  2938.62000   0.
    47.83000  2936.87000   0.
    53.39000  2935.46000   0.
    58.94000  2933.69000   0.
    64.49000  2931.95000   0.
    70.04000  2931.81000   0.
    75.60000  2931.36000   0.
    81.15000  2931.70000   0.
     0.51333  2967.60000   0.
     1.02667  2967.10000   0.
     2.05333  2966.03333   0.
     2.56667  2965.46667   0.
     3.59000  2964.63333   0.
     4.10000  2964.36667   0.
     5.12333  2963.83333   0.
     5.63667  2963.56667   0.
     6.66333  2963.06667   0.
     7.17667  2962.83333   0.
     8.20333  2962.23333   0.
     8.71667  2961.86667   0.
     9.74000  2961.23333   0.
    10.25000  2960.96667   0.
    11.27333  2960.46667   0.
    11.78667  2960.23333   0.
    12.81333  2959.76667   0.
    13.32667  2959.53333   0.
    14.35333  2959.10000   0.
    14.86667  2958.90000   0.
    15.89000  2958.50000   0.
    16.40000  2958.30000   0.
    17.42333  2957.83333   0.
    17.93667  2957.56667   0.
    18.96333  2957.06667   0.
    19.47667  2956.83333   0.
    20.50000  2956.33333   0.
    21.01000  2956.06667   0.
    22.03333  2955.53333   0.
    22.54667  2955.26667   0.
    23.57333  2954.76667   0.
    24.08667  2954.53333   0.
    25.11333  2954.03333   0.
    25.62667  2953.76667   0.
    26.65333  2953.26667   0.
    27.16667  2953.03333   0.
    28.19000  2952.50000   0.
    28.70000  2952.20000   0.
    29.72333  2951.63333   0.
    30.23667  2951.36667   0.
    31.26333  2950.80000   0.
    31.77667  2950.50000   0.
    32.80333  2949.96667   0.
    33.31667  2949.73333   0.
    34.34000  2949.23333   0.
    34.85000  2948.96667   0.
    35.87333  2948.50000   0.
    36.38667  2948.30000   0.
    37.41333  2947.83333   0.
    37.92667  2947.56667   0.
    38.95333  2947.10000   0.
    39.46667  2946.90000   0.
    40.49000  2946.50000   0.
    41.00000  2946.30000   0.
    42.02333  2945.90000   0.
    42.53667  2945.70000   0.
    43.56333  2945.36667   0.
    44.07667  2945.23333   0.
    45.10333  2944.90000   0.
    45.61667  2944.70000   0.
    46.64000  2944.36667   0.
    47.15000  2944.23333   0.
    48.17333  2943.93333   0.
    48.68667  2943.76667   0.
    49.71333  2943.53333   0.
    50.22667  2943.46667   0.
    51.25333  2943.26667   0.
    51.76667  2943.13333   0.
    52.79000  2942.83333   0.
    53.30000  2942.66667   0.
    54.32333  2942.36667   0.
    54.83667  2942.23333   0.
    55.86333  2941.93333   0.
    56.37667  2941.76667   0.
    57.40333  2941.40000   0.
    57.91667  2941.20000   0.
    58.94000  2940.86667   0.
    59.45000  2940.73333   0.
    60.47333  2940.43333   0.
    60.98667  2940.26667   0.
    62.01333  2939.90000   0.
    62.52667  2939.70000   0.
    63.55333  2939.36667   0.
    64.06667  2939.23333   0.
    65.34500  2939.15000   0.
    66.88000  2939.20000   0.
    68.42000  2939.15000   0.
    69.70333  2939.03333   0.
    70.21667  2938.96667   0.
    71.24000  2938.80000   0.
    71.75000  2938.70000   0.
    72.77333  2938.50000   0.
    73.28667  2938.40000   0.
    74.31333  2938.36667   0.
    74.82667  2938.43333   0.
    75.85333  2938.56667   0.
    76.36667  2938.63333   0.
    77.64500  2938.65000   0.
    78.92333  2938.66667   0.
    79.43667  2938.73333   0.
    80.72000  2938.85000   0.
    82.00333  2938.96667   0.
    82.51667  2939.03333   0.
    83.79500  2939.10000   0.
     0.08400  2959.57200   0.
     1.19600  2958.89800   0.
     2.30800  2958.22400   0.
     4.53000  2956.94200   0.
     5.64000  2956.33400   0.
     6.75000  2955.72600   0.
     7.86000  2955.11800   0.
    10.35750  2953.84750   0.
    11.74500  2953.18500   0.
    13.13250  2952.52250   0.
    15.90750  2951.24000   0.
    17.29500  2950.62000   0.
    18.68250  2950.00000   0.
    21.18200  2948.82200   0.
    22.29400  2948.26400   0.
    23.40600  2947.70600   0.
    24.51800  2947.14800   0.
    26.74000  2946.00600   0.
    27.85000  2945.42200   0.
    28.96000  2944.83800   0.
    30.07000  2944.25400   0.
    32.56750  2943.00000   0.
    33.95500  2942.33000   0.
    35.34250  2941.66000   0.
    38.11750  2940.39750   0.
    39.50500  2939.80500   0.
    40.89250  2939.21250   0.
    43.66750  2938.18250   0.
    45.05500  2937.74500   0.
    46.44250  2937.30750   0.
    49.22000  2936.51750   0.
    50.61000  2936.16500   0.
    52.00000  2935.81250   0.
    54.77750  2935.01750   0.
    56.16500  2934.57500   0.
    57.55250  2934.13250   0.
    60.32750  2933.25500   0.
    61.71500  2932.82000   0.
    63.10250  2932.38500   0.
    65.87750  2931.91500   0.
    67.26500  2931.88000   0.
    68.65250  2931.84500   0.
    71.43000  2931.69750   0.
    72.82000  2931.58500   0.
    74.21000  2931.47250   0.
    76.98750  2931.44500   0.
    78.37500  2931.53000   0.
    79.76250  2931.61500   0.
    82.53750  2931.75500   0.
    83.92500  2931.81000   0.
     6.60134  2937.05984   0.
    20.80435  2932.52560   0.
     3.78758  2946.36592   0.
    15.48523  2940.98228   0.
    29.30091  2934.50364   0.
    23.90594  2939.46561   0.
    40.87322  2931.62711   0.
     1.03219  2951.87344   0.
    10.83406  2946.32292   0.
    20.42668  2943.42459   0.
    48.80952  2930.83467   0.
    35.50309  2935.49258   0.
     7.54365  2949.73854   0.
    28.57967  2939.84283   0.
    15.90963  2945.83181   0.
    44.30452  2933.27820   0.
    -0.12722  2955.42655   0.
    24.47411  2943.04615   0.
     4.45051  2952.86019   0.
    40.01017  2935.22543   0.
    52.75593  2931.58993   0.
    13.75183  2934.27842   0.
    32.31862  2938.44653   0.
     0.40990  2931.04902   0.
    19.20708  2946.27332   0.
    57.19103  2930.55709   0.
    -0.97178  2947.27328   0.
    19.39705  2939.49643   0.
    11.08068  2950.12444   0.
    32.86215  2930.47012   0.
     7.41320  2941.82707   0.
    13.76382  2948.77946   0.
    27.17579  2942.79365   0.
     7.27112  2952.68663   0.
     2.71547  2954.94653   0.
    22.91159  2945.17994   0.
     2.00816  2941.86911   0.
    24.73355  2934.79062   0.
    47.86753  2934.00196   0.
    50.62083  2933.29089   0.
    60.15732  2930.28185   0.
    37.65425  2937.53830   0.
    44.64836  2929.77041   0.
    10.93416  2939.02064   0.
     4.26476  2949.76242   0.
    36.78915  2931.78219   0.
     7.36345  2946.13476   0.
    30.92470  2941.06806   0.
     6.19921  2931.10091   0.
    35.16618  2938.51604   0.
    16.36294  2929.87801   0.
    13.43632  2943.77014   0.
    42.64967  2935.50406   0.
    26.89596  2931.23775   0.
     1.59760  2936.73753   0.
    17.19200  2948.13905   0.
    -0.61497  2957.60981   0.
    26.49360  2937.36117   0.
     9.56799  2951.50953   0.
    17.55858  2943.77119   0.
    55.26825  2932.33039   0.
    22.03247  2936.46128   0.
    16.10828  2937.24515   0.
    22.48452  2941.40733   0.
    20.86327  2946.43955   0.
    29.71126  2937.35408   0.
    32.14062  2935.59882   0.
    45.26358  2935.44707   0.
    29.19256  2942.39482   0.
    25.22337  2944.48902   0.
    25.77440  2940.40763   0.
     5.12787  2951.33100   0.
     9.72036  2943.07255   0.
     0.63027  2944.64860   0.
     5.15669  2954.13690   0.
    33.80274  2940.56791   0.
     1.57076  2956.41210   0.
     9.31000  2947.97928   0.
     9.87726  2933.53233   0.
    53.60824  2932.85261   0.
    40.63972  2936.89193   0.
    13.47285  2946.23828   0.
    37.68088  2934.75035   0.
    46.32767  2931.88185   0.
    18.64740  2941.16071   0.
    13.09413  2950.32980   0.
    18.01744  2935.92389   0.
     0.55332  2948.73049   0.
     5.35766  2947.55011   0.
    42.44669  2933.52960   0.
    57.75733  2932.24094   0.
    23.68300  2931.83870   0.
    19.94397  2947.74183   0.
    61.81887  2931.15328   0.
[...]
POINT_DATA      1414
CELL_DATA      2568
SCALARS Resistivity(ohm.m) double 1
LOOKUP_TABLE default
          1033.63860          1618.98725          2277.26215          1003.23631           543.50387          2452.51703          1423.17376          1567.38397          1563.81458          1964.51298           775.62605          1900.83282           590.81366          2405.18053          2316.86047          1810.51134          1442.85939           391.64838           509.16859          2790.26426          1326.63191          1770.98928          1124.13500           591.58585          1801.95095           518.81101           257.36343          2397.16933          2158.63410          2239.96736           526.05739           523.11109          1523.62910           423.65631           372.12283          1760.21069           737.08435           900.96783          1093.85166          1670.74904          1747.13970           687.02467           511.43744          2281.69356           370.82534           438.49064          2738.39818           819.20803           609.39763           985.25549          2794.66856          1790.54850           986.55193          1457.18853          2111.04158           871.80459           389.56133          2277.40838           458.87312          1034.85105           559.65208          2194.14966           380.29604          1738.89949           271.89660          1470.05564          2232.78447          1920.90387           308.80225           737.20102           505.58865           802.28166          2032.18766           433.86070           291.57496          2670.13458          1255.77302           397.78645           300.39735          2703.98269          2734.80899          1488.69219           455.34113           462.46974          2073.92896           789.55603           365.68153          2048.04382           904.85704          1766.53139           971.86844           404.38973          2392.00413           320.66041          1852.92829          1986.63091           477.21133          1130.43746          2214.51858           934.82939          1373.64137           565.40357           648.72493           713.68272          1052.68300          1598.25362           532.10782           918.64456          2048.14926          1196.63742           342.81353          1208.66906          2422.74866          1645.11486          1983.65634          1218.38596          1111.37802          1362.31977           500.59541           340.33278          2687.55534          1222.42198          2722.73415           724.21818           453.71057          2132.12811          2338.07380          2838.20734          1666.13786          1529.96112          2064.06594           996.77766          1115.36723          2408.79597           809.37097          2618.19537           334.35619          1555.13505           936.85056          1265.31793          1440.55134           541.24871           635.88631          1451.02798          1521.78853           588.93199           482.21058          1299.64856          1918.11711           554.89936          2169.35920          1863.93613           894.92930           686.82451          2612.13940           270.32483          1580.28867           405.80533          2187.82214          1153.10886          1109.47340           540.89123          2254.37238           476.62915          2204.51403           568.63424          1567.83233          1811.84508          1850.95522          1613.22129           714.00142           756.85789           698.36384           282.96873           450.51215           953.75568           798.63600          3088.04802          2502.24260          1039.69074          2569.65578          1396.42686          1969.93883           729.95239           563.98195           908.31151           839.42679           667.65704           879.34511          2482.91794          1093.40314          2494.05746           629.98516          2631.45555           282.26251           553.27214          2656.60306          2028.46546          1090.31916           468.63198           266.37604           840.73377          1628.55349          1295.88018          1768.68357           960.66281          3365.91699          2116.48923           442.87666          2123.36175          1160.97381           615.58229           467.22546           353.82165           581.62424          1057.44225          2333.71924           502.37514          1102.58810           554.50322           903.67346          1197.29719          1013.93364           351.02162           636.91823           672.07620           337.77028           588.67677          1212.75705           347.32542          1083.01162          1958.67618          1236.55248          2718.21257          2720.70566          1571.39959          2718.74370          1369.22187          1255.73808          1197.81064          2546.61429           642.30169           905.17928           450.77481          2589.90578           259.16257          1745.05897           501.23186           377.27797          2065.41046           251.31604          1918.47160          1579.58020           697.48899          2004.99545           919.07783           619.54317           723.99052           688.45068          2698.49384           578.73285          2134.14099           418.31079           484.53215           464.41190          1501.47514           379.81798          2431.25033           866.88813          2142.99816          1013.69820          1964.65126          2333.55261          2451.27073           476.94238          1448.17404          2068.67842           445.84788           693.02565           638.49383           434.02724          1258.60684           277.26134           886.79722           903.68707          2366.50825           518.30622          2791.00822           617.99633           404.79871           966.02735           298.99154          2516.82828           681.31830          1914.09781          2613.07263          1270.73717           560.01064           488.27244           665.28643          1076.15700           473.39772          2790.62715          2451.34614           403.86461          1740.68350          1170.06305          1363.53151          1882.17737           337.06208           705.54034           581.37897           316.11111          2542.05103           779.64220           331.09222           508.89275          1178.58569          2606.17826           492.17719          2907.68650           421.62430           954.59560           393.20341           575.01035          1072.15296           473.42562          1278.50906           962.83897          2629.56686          1631.27360          2265.00911           554.29632          1431.07495           376.92186           436.92124           621.78510           607.09827          2810.27636           572.16573          2281.84829           356.40804          2190.05287           430.17684           595.49077          1715.37924          1092.93228          1149.11611           461.64693          2363.81402           385.21974          2419.60644           769.36694           350.25389           506.78715          2153.87303           518.65679          1414.24160           349.18774           435.07883           833.41539          1394.02216           879.74814           561.97517          1207.17450           531.92345           348.71493          2633.76326          1604.63077          2504.42739           416.24808          1181.33920          1243.78605          1052.25353           309.88378          2533.35280           436.30232           481.25070           405.56828          2048.23299          1196.96967           367.14671          1691.92499          2615.98085           252.25455          1212.55646           582.49231          1286.16643           480.90827          1381.05966           716.59378           372.00157          1292.52442          1501.62459           371.09246           804.15198           603.50699          1404.52333          1623.01966          1000.37901           574.04839           652.42683          1179.09320          1352.16801          1153.85164           829.70911           536.37365           886.06100          2540.79925          1470.01827          1334.12607          2295.40977          1012.47908           605.42616          1222.58343          2829.59064           664.57764           865.96811           685.00869          1571.56318           971.49233           424.71949          2390.04190          1296.82876          1138.93112           298.25104          1665.21332           577.05439          1245.49607           438.93013          1173.12405           418.30297           365.47707          1936.35942           973.52221          1298.73807          1323.21385           629.57073          1826.10901          1381.69918          3051.74586           588.16137          1052.60407          2032.46284          1032.00781          1018.16751          1186.70101          1075.31307          3797.33527           818.81389          2886.89276          1385.69635          1492.83807          1284.90447          1674.13839           800.47989          2141.71282           871.20128          1260.80092           399.37380          1820.89708          1166.41772           843.62061          1330.17201          2191.09824           798.35915           861.95192          1187.93936          1754.33472          1482.38448           845.80237          1712.47791           846.64186           293.28562          1843.44841          3483.93125          1046.81050           454.00139          1413.74072           710.00007          1148.24064          1910.07273           548.74307           481.41391          2097.20044          2743.07812          1248.90038           329.48180           674.52603           761.89220          1129.65198          1129.20276           977.77594          1403.26164           780.28010          1355.82489           753.48853           985.97354          2424.85590          1705.27205           650.08723           305.71613           589.80513          1146.95115           759.70668          1105.34909          3340.46586          1114.70909           402.70522           521.33007          1231.97242          1083.03635           848.56540           450.15796          2874.26686          1307.52063           412.90653          3036.67083          2513.12526           403.21107          1232.09217          1104.84524           984.92003          1155.40754           989.76830           587.15103          1496.60859          1320.29439          1332.35971          1334.65626           703.96169          1627.98749           394.95130          1269.51745           613.66049           398.79818           718.56767          1549.20962          1015.30526           882.26302           401.22448           435.55730          1539.44057          1041.94929          4608.24729          5132.52773          3649.39176          2080.64517          1991.74852          2341.45043          3598.68312          5173.11516           704.08653          4214.34275           412.42932          1016.84359          1303.26579           631.07243          4639.79134          6502.98559          1208.35603           426.04988          1885.98804          2590.35667           741.22740           798.35040          1373.66182          3719.52068          1305.42301          2628.81902          1217.35619           604.33604          1420.20814          1601.01740           471.33864          2976.77875           474.15150          1408.44481          5367.60234          3501.01659          1591.34782          5915.11612           273.60527           817.71953           466.63610          1945.02345          2795.19227          1671.87749          3301.31405          1674.36556          2597.16862           741.79046          1385.19925          1420.21450          1683.19638         10074.37298          3533.69366           939.76941          4064.70532          3578.26116           771.32115           584.13196          6303.59871          2689.00735          3788.02776          5788.21843          1467.31357           841.83120           720.55240           505.11234           799.65060          4438.78377          1577.12730           958.59562          1719.28513           307.20343          1061.63089          1734.87644          4094.23538           991.55455           977.23266           680.76357           720.98313          1567.45289          1444.95281           813.98615          3239.83610          2728.15079          2904.76406          3331.90666          5062.40312          5179.77522          2658.89969           595.73211          5153.57220          1275.56846          1563.42775           682.86647          1378.88535           888.14130           373.05648          7306.98500          4415.25056          1466.81536          1495.17394          2708.98809          2190.60468          2937.31313          2577.27795           878.17887          1121.67261           540.22028           990.24525           451.86490           484.97401           868.86654           593.87880          1889.21035          5379.64628          3745.27511          1522.46951          2466.02538          1375.38162          1673.32881          8279.74021          4737.74514          1947.95986           477.43447           636.48035          6785.36474           645.44442          3845.10336          4812.72954          1021.57255          2232.33857           643.85973          1095.14014          1015.49292          2206.09910          2271.69997          2456.49426           594.84346           539.08597          1160.80283           334.91631           577.05597           422.66278          3243.12332          5053.11465           487.35504          2891.67274           819.65705          2558.05501          1113.08791           812.58948           570.79145           677.50774           626.47106          1913.91911           693.39050          1364.59978           643.07992          2468.53140          1895.68998          4687.22096          2370.91554           610.31362           511.98590           311.09143          2976.06319           700.48580           694.71260          1213.65252          2702.92471           930.06538           818.51383           495.12209          1167.83393          1076.89454          1658.69543          1431.02569           582.06610           682.67994           647.49748          2734.85288          2218.19101          1214.28350          8398.76168           994.01743           937.30473           871.76611          1458.51789          2588.78926          1650.43950          1536.78778          1666.72618          2539.24031           897.01618          8221.25885          1405.10280          2748.58444           841.08636          1187.02860          3911.04654          3091.17097           706.69753          1021.32880          3247.97272           517.21080           487.45572          1171.15483          2559.13468          6723.82152          1338.97737          6953.47017          1363.19121          1780.16237          1555.81842          1100.38987           465.42606           742.69668          2590.29220           678.64708          4099.93855           598.20438          3019.99978           934.99947           713.79376          1386.98935          1785.53673          2705.19178          4941.33637          2701.65644          1292.31824          1611.17244          1183.59795          7032.98392          7664.23330          1992.34022          1015.88320          2728.62737           597.69286          1113.98081           829.20118          2644.26163          1116.82454          1006.60622           511.30367           580.01648          3851.37346          1073.21014           767.97624          6520.98835          4658.42056          1997.24564          1344.74032          8909.84422           752.53320          2455.24639          3297.50312          2015.50328          1210.00801          2872.00864          6281.24562          1781.46709           387.50797           649.95117           845.51281          1748.40822          1613.85659           667.52347           664.42732          7284.12873           722.61739          1305.03234          1774.54425          3632.14837          5628.84579           461.09344          1330.87772           849.72344          1058.47208          1842.70454           721.85840           788.94044          1418.79294           857.67746           595.24121           440.67405           799.11214          2787.02809           474.73928          2796.23488          1711.06449          2237.87298          1318.44368          1738.80220          1643.48611           458.48094          3949.06522          1406.80472          1935.07715          1870.89015          2292.61783          5517.29220           981.12162          4607.43033           520.22577           765.59470          1620.95814          1103.63340          7650.47597          2819.10484           892.84499          1525.03506          4792.89577          3587.06493           583.74286          5375.70747          1358.55550          2812.24573          1027.09871          3551.55279          3620.06150           486.81710          3463.14775          4361.96137          2662.38763          5105.35498           876.17923           765.90371          1095.34818          2270.21234           473.73265          8530.11067          4321.35310           615.74293          1639.62845          1719.36676          1904.11216           860.13794          1137.40814         14842.13685           672.33775          2191.24804          1297.09107           541.85588           764.59415          2227.06827          5097.72962          6491.33113          1815.10659          2781.12119          2402.06064          4129.41989           653.07491          1362.13932          2220.49291          1740.97354          5145.29799           556.35787          1107.75841          2602.47265           799.24576          3579.31056          2166.61009          6311.86119          2608.51443          1249.06071          1116.31556           588.50821          4928.05322          7011.18154          2379.00184           345.04847           416.55570           772.25418           774.14151          6156.17001          1211.98277          2047.86426          3108.93453          2846.64192          5517.08016          5490.31947           381.28369           548.62954           761.44819          1313.44605           621.31449          4575.21832          3577.53912          1258.16372           849.62759          1052.26354          2322.40592          3611.51835          2218.78820          1867.61483           916.47473          4728.24673          8050.71833           503.57722           662.43124          1794.41428          7779.22653          2139.10898          2720.07628          5065.34376           840.71611          1859.02341          4503.31112           556.39422          1571.35869          1111.43382          4998.09072           844.57684          1828.70730          3122.15473          6186.00325          4169.94640          5465.27157          4418.71645          4145.07259          1546.90836           790.40686          3718.62196         10168.83202           615.30537          2273.16292          2595.21774           269.09577          2461.78212          3454.92420          2444.61114           406.92731          4943.72030           848.94187          3376.41400          4099.03164          1716.61110           761.18860          2813.60221          3690.51985          5679.96383          6157.70727          4727.96835           576.12628           606.64337          1333.37936          5558.11762          1106.65347          2584.44386           878.33017           705.454