# vtk DataFile Version 3.0
Output from R2
ASCII
DATASET UNSTRUCTURED_GRID
POINTS       1414 double
     0.00000  2968.10000   0.
     1.54000  2966.60000   0.
     3.08000  2964.90000   0.
     4.61000  2964.10000   0.
     6.15000  2963.30000   0.
     7.69000  2962.60000   0.
     9.23000  2961.50000   0.
    10.76000  2960.70000   0.
    12.30000  2960.00000   0.
    13.84000  2959.30000   0.
    15.38000  2958.70000   0.
    16.91000  2958.10000   0.
    18.45000  2957.30000   0.
    19.99000  2956.60000   0.
    21.52000  2955.80000   0.
    23.06000  2955.00000   0.
    24.60000  2954.30000   0.
    26.14000  2953.50000   0.
    27.68000  2952.80000   0.
    29.21000  2951.90000   0.
    30.75000  2951.10000   0.
    32.29000  2950.20000   0.
    33.83000  2949.50000   0.
    35.36000  2948.70000   0.
    36.90000  2948.10000   0.
    38.44000  2947.30000   0.
    39.98000  2946.70000   0.
    41.51000  2946.10000   0.
    43.05000  2945.50000   0.
    44.59000  2945.10000   0.
    46.13000  2944.50000   0.
    47.66000  2944.10000   0.
    49.20000  2943.60000   0.
    50.74000  2943.40000   0.
    52.28000  2943.00000   0.
    53.81000  2942.50000   0.
    55.35000  2942.10000   0.
    56.89000  2941.60000   0.
    58.43000  2941.00000   0.
    59.96000  2940.60000   0.
    61.50000  2940.10000   0.
    63.04000  2939.50000   0.
    64.58000  2939.10000   0.
    66.11000  2939.20000   0.
    67.65000  2939.20000   0.
    69.19000  2939.10000   0.
    70.73000  2938.90000   0.
    72.26000  2938.60000   0.
    73.80000  2938.30000   0.
    75.34000  2938.50000   0.
    76.88000  2938.70000   0.
    78.41000  2938.60000   0.
    79.95000  2938.80000   0.
    81.49000  2938.90000   0.
    83.03000  2939.10000   0.
    84.56000  2939.10000   0.
     3.42000  2957.55000   0.
     8.97000  2954.51000   0.
    14.52000  2951.86000   0.
    20.07000  2949.38000   0.
    25.63000  2946.59000   0.
    31.18000  2943.67000   0.
    36.73000  2940.99000   0.
    42.28000  2938.62000   0.
    47.83000  2936.87000   0.
    53.39000  2935.46000   0.
    58.94000  2933.69000   0.
    64.49000  2931.95000   0.
    70.04000  2931.81000   0.
    75.60000  2931.36000   0.
    81.15000  2931.70000   0.
     0.51333  2967.60000   0.
     1.02667  2967.10000   0.
     2.05333  2966.03333   0.
     2.56667  2965.46667   0.
     3.59000  2964.63333   0.
     4.10000  2964.36667   0.
     5.12333  2963.83333   0.
     5.63667  2963.56667   0.
     6.66333  2963.06667   0.
     7.17667  2962.83333   0.
     8.20333  2962.23333   0.
     8.71667  2961.86667   0.
     9.74000  2961.23333   0.
    10.25000  2960.96667   0.
    11.27333  2960.46667   0.
    11.78667  2960.23333   0.
    12.81333  2959.76667   0.
    13.32667  2959.53333   0.
    14.35333  2959.10000   0.
    14.86667  2958.90000   0.
    15.89000  2958.50000   0.
    16.40000  2958.30000   0.
    17.42333  2957.83333   0.
    17.93667  2957.56667   0.
    18.96333  2957.06667   0.
    19.47667  2956.83333   0.
    20.50000  2956.33333   0.
    21.01000  2956.06667   0.
    22.03333  2955.53333   0.
    22.54667  2955.26667   0.
    23.57333  2954.76667   0.
    24.08667  2954.53333   0.
    25.11333  2954.03333   0.
    25.62667  2953.76667   0.
    26.65333  2953.26667   0.
    27.16667  2953.03333   0.
    28.19000  2952.50000   0.
    28.70000  2952.20000   0.
    29.72333  2951.63333   0.
    30.23667  2951.36667   0.
    31.26333  2950.80000   0.
    31.77667  2950.50000   0.
    32.80333  2949.96667   0.
    33.31667  2949.73333   0.
    34.34000  2949.23333   0.
    34.85000  2948.96667   0.
    35.87333  2948.50000   0.
    36.38667  2948.30000   0.
    37.41333  2947.83333   0.
    37.92667  2947.56667   0.
    38.95333  2947.10000   0.
    39.46667  2946.90000   0.
    40.49000  2946.50000   0.
    41.00000  2946.30000   0.
    42.02333  2945.90000   0.
    42.53667  2945.70000   0.
    43.56333  2945.36667   0.
    44.07667  2945.23333   0.
    45.10333  2944.90000   0.
    45.61667  2944.70000   0.
    46.64000  2944.36667   0.
    47.15000  2944.23333   0.
    48.17333  2943.93333   0.
    48.68667  2943.76667   0.
    49.71333  2943.53333   0.
    50.22667  2943.46667   0.
    51.25333  2943.26667   0.
    51.76667  2943.13333   0.
    52.79000  2942.83333   0.
    53.30000  2942.66667   0.
    54.32333  2942.36667   0.
    54.83667  2942.23333   0.
    55.86333  2941.93333   0.
    56.37667  2941.76667   0.
    57.40333  2941.40000   0.
    57.91667  2941.20000   0.
    58.94000  2940.86667   0.
    59.45000  2940.73333   0.
    60.47333  2940.43333   0.
    60.98667  2940.26667   0.
    62.01333  2939.90000   0.
    62.52667  2939.70000   0.
    63.55333  2939.36667   0.
    64.06667  2939.23333   0.
    65.34500  2939.15000   0.
    66.88000  2939.20000   0.
    68.42000  2939.15000   0.
    69.70333  2939.03333   0.
    70.21667  2938.96667   0.
    71.24000  2938.80000   0.
    71.75000  2938.70000   0.
    72.77333  2938.50000   0.
    73.28667  2938.40000   0.
    74.31333  2938.36667   0.
    74.82667  2938.43333   0.
    75.85333  2938.56667   0.
    76.36667  2938.63333   0.
    77.64500  2938.65000   0.
    78.92333  2938.66667   0.
    79.43667  2938.73333   0.
    80.72000  2938.85000   0.
    82.00333  2938.96667   0.
    82.51667  2939.03333   0.
    83.79500  2939.10000   0.
     0.08400  2959.57200   0.
     1.19600  2958.89800   0.
     2.30800  2958.22400   0.
     4.53000  2956.94200   0.
     5.64000  2956.33400   0.
     6.75000  2955.72600   0.
     7.86000  2955.11800   0.
    10.35750  2953.84750   0.
    11.74500  2953.18500   0.
    13.13250  2952.52250   0.
    15.90750  2951.24000   0.
    17.29500  2950.62000   0.
    18.68250  2950.00000   0.
    21.18200  2948.82200   0.
    22.29400  2948.26400   0.
    23.40600  2947.70600   0.
    24.51800  2947.14800   0.
    26.74000  2946.00600   0.
    27.85000  2945.42200   0.
    28.96000  2944.83800   0.
    30.07000  2944.25400   0.
    32.56750  2943.00000   0.
    33.95500  2942.33000   0.
    35.34250  2941.66000   0.
    38.11750  2940.39750   0.
    39.50500  2939.80500   0.
    40.89250  2939.21250   0.
    43.66750  2938.18250   0.
    45.05500  2937.74500   0.
    46.44250  2937.30750   0.
    49.22000  2936.51750   0.
    50.61000  2936.16500   0.
    52.00000  2935.81250   0.
    54.77750  2935.01750   0.
    56.16500  2934.57500   0.
    57.55250  2934.13250   0.
    60.32750  2933.25500   0.
    61.71500  2932.82000   0.
    63.10250  2932.38500   0.
    65.87750  2931.91500   0.
    67.26500  2931.88000   0.
    68.65250  2931.84500   0.
    71.43000  2931.69750   0.
    72.82000  2931.58500   0.
    74.21000  2931.47250   0.
    76.98750  2931.44500   0.
    78.37500  2931.53000   0.
    79.76250  2931.61500   0.
    82.53750  2931.75500   0.
    83.92500  2931.81000   0.
     6.60134  2937.05984   0.
    20.80435  2932.52560   0.
     3.78758  2946.36592   0.
    15.48523  2940.98228   0.
    29.30091  2934.50364   0.
    23.90594  2939.46561   0.
    40.87322  2931.62711   0.
     1.03219  2951.87344   0.
    10.83406  2946.32292   0.
    20.42668  2943.42459   0.
    48.80952  2930.83467   0.
    35.50309  2935.49258   0.
     7.54365  2949.73854   0.
    28.57967  2939.84283   0.
    15.90963  2945.83181   0.
    44.30452  2933.27820   0.
    -0.12722  2955.42655   0.
    24.47411  2943.04615   0.
     4.45051  2952.86019   0.
    40.01017  2935.22543   0.
    52.75593  2931.58993   0.
    13.75183  2934.27842   0.
    32.31862  2938.44653   0.
     0.40990  2931.04902   0.
    19.20708  2946.27332   0.
    57.19103  2930.55709   0.
    -0.97178  2947.27328   0.
    19.39705  2939.49643   0.
    11.08068  2950.12444   0.
    32.86215  2930.47012   0.
     7.41320  2941.82707   0.
    13.76382  2948.77946   0.
    27.17579  2942.79365   0.
     7.27112  2952.68663   0.
     2.71547  2954.94653   0.
    22.91159  2945.17994   0.
     2.00816  2941.86911   0.
    24.73355  2934.79062   0.
    47.86753  2934.00196   0.
    50.62083  2933.29089   0.
    60.15732  2930.28185   0.
    37.65425  2937.53830   0.
    44.64836  2929.77041   0.
    10.93416  2939.02064   0.
     4.26476  2949.76242   0.
    36.78915  2931.78219   0.
     7.36345  2946.13476   0.
    30.92470  2941.06806   0.
     6.19921  2931.10091   0.
    35.16618  2938.51604   0.
    16.36294  2929.87801   0.
    13.43632  2943.77014   0.
    42.64967  2935.50406   0.
    26.89596  2931.23775   0.
     1.59760  2936.73753   0.
    17.19200  2948.13905   0.
    -0.61497  2957.60981   0.
    26.49360  2937.36117   0.
     9.56799  2951.50953   0.
    17.55858  2943.77119   0.
    55.26825  2932.33039   0.
    22.03247  2936.46128   0.
    16.10828  2937.24515   0.
    22.48452  2941.40733   0.
    20.86327  2946.43955   0.
    29.71126  2937.35408   0.
    32.14062  2935.59882   0.
    45.26358  2935.44707   0.
    29.19256  2942.39482   0.
    25.22337  2944.48902   0.
    25.77440  2940.40763   0.
     5.12787  2951.33100   0.
     9.72036  2943.07255   0.
     0.63027  2944.64860   0.
     5.15669  2954.13690   0.
    33.80274  2940.56791   0.
     1.57076  2956.41210   0.
     9.31000  2947.97928   0.
     9.87726  2933.53233   0.
    53.60824  2932.85261   0.
    40.63972  2936.89193   0.
    13.47285  2946.23828   0.
    37.68088  2934.75035   0.
    46.32767  2931.88185   0.
    18.64740  2941.16071   0.
    13.09413  2950.32980   0.
    18.01744  2935.92389   0.
     0.55332  2948.73049   0.
     5.35766  2947.55011   0.
    42.44669  2933.52960   0.
    57.75733  2932.24094   0.
    23.68300  2931.83870   0.
    19.94397  2947.74183   0.
    61.81887  2931.15328   0.
[...]
POINT_DATA      1414
CELL_DATA      2568
SCALARS Resistivity(ohm.m) double 1
LOOKUP_TABLE default
          1109.61021          1916.96398          2277.90236          1059.20727           500.19628          2405.05792          1259.92066          1461.35555          1738.75277          2248.13964           712.02972          2170.73250           578.16816          2548.26231          2504.76437          1954.42550          1688.27428           445.98657           473.64078          2479.01548          1169.59881          2021.06801          1277.55895           631.03552          2073.40482           549.01166           256.23418          2425.50662          2379.89320          2333.28847           487.75375           558.31398          1808.01868           417.52971           365.86870          1682.38770           702.92090           884.31793          1219.29748          1549.55093          1946.52775           644.92722           448.48622          2506.78886           331.19700           444.30544          2916.06121           755.91378           595.21503           880.59033          2692.70776          2050.39147           931.21125          1680.45775          2287.72887           848.94456           356.45611          2357.59769           458.57855          1010.08022           513.67673          2391.67678           440.12980          1927.86461           263.61021          1623.54628          2391.34464          2217.52730           287.59717           680.59976           527.23218           738.54127          2266.48593           393.30037           312.09095          2938.94517          1461.56825           438.84146           323.00809          2819.39158          2733.76109          1390.95286           437.64799           458.25400          2300.33579           740.67990           332.42279          2265.65787           811.40423          2079.62909           987.65546           356.48428          2368.75957           352.26217          1802.65383          2226.60018           509.29397          1161.47117          2420.51359           936.93685          1638.09117           520.39340           598.42806           663.57301          1003.19615          1807.11802           494.97402           861.64936          2175.36674          1258.65060           382.02347          1049.23510          2658.48855          1948.92982          2212.31064          1313.87720           963.46784          1599.21006           441.27192           315.09826          2425.94302          1426.54503          2965.20485           676.64519           486.67056          2337.76364          2568.84238          3118.39931          1928.42814          1384.91870          2307.74724          1048.12756          1223.66127          2520.39143           754.48842          2875.37053           374.46663          1785.74863           943.33865          1379.21604          1716.76932           500.64416           584.08361          1289.44558          1790.98056           541.81770           462.66003          1541.98794          2180.14522           574.53702          2346.49087          2113.20980           850.44946           654.76211          2526.95328           283.55407          1596.39565           412.91128          2414.35069          1286.10935          1095.77252           500.91700          2467.58559           476.77749          2368.13967           523.57372          1421.77779          1832.93010          2058.12865          1883.90438           665.99595           706.82876           647.74100           270.84018           417.28729           839.25504           754.67572          3384.71652          2746.26730          1062.26404          2478.37041          1358.00839          2236.85132           681.00853           519.28415           901.68682           804.76634           612.75530           782.71637          2650.82566          1201.10949          2618.55406           566.57679          2749.23146           268.70275           494.36198          2715.39167          2293.60748          1208.13903           415.98634           281.59666           755.75893          1908.67074          1503.06748          1823.06599           984.14596          3643.39551          2330.63361           390.78784          2341.71455          1331.88447           567.50175           423.94417           334.55717           600.58361          1156.30089          2541.72368           522.70460          1213.45018           507.71795           801.40058          1294.41534          1040.15656           343.45261           594.06915           609.07796           368.25820           525.05895          1283.67238           328.71408           951.97832          2081.76157          1453.97107          2964.01991          2566.64632          1667.39429          2608.34892          1385.42561          1380.29019          1398.37731          2717.60068           607.06873           895.32203           399.81268          2648.24594           264.59221          2055.48765           482.40455           433.32081          2317.08955           255.91807          2092.93318          1767.57649           639.53243          2256.76969           891.84922           614.12863           670.30001           642.03344          2921.32127           549.21032          2350.89298           458.74445           424.15385           461.03490          1657.93651           356.03151          2331.93813           840.47130          2338.32153           896.46690          2204.37815          2555.79978          2454.63539           486.36924          1731.31619          2303.45388           476.12138           666.91512           620.87670           479.13284          1419.60525           276.43789           858.64089           821.07636          2281.30752           462.36435          2547.56823           580.88248           441.71438           845.69540           305.27174          2553.18648           618.80819          2185.28254          2440.94222          1442.73621           514.91518           431.44925           606.65931           942.90779           452.25927          2635.59215          2673.44532           403.96351          1978.64641          1329.18062          1616.11851          2109.37021           371.26372           645.22926           556.16214           290.50839          2368.56479           709.61845           334.22487           485.10510          1053.85953          2823.66867           497.87896          3188.99661           397.07747           939.03845           425.98483           521.13624          1184.51001           470.67814          1422.36437           987.17844          2878.31977          1938.11116          2398.07094           489.49748          1594.07660           348.37846           399.99504           562.34742           562.52239          3096.95344           588.64867          2425.54590           404.76458          2371.88007           440.46036           546.91058          1967.59655          1137.09507          1060.86548           473.21948          2443.58795           434.66578          2621.44283           721.23915           374.07133           459.19313          2350.17005           486.41055          1624.26359           314.43941           381.53291           747.54850          1582.49748           810.45102           499.97167          1378.34741           475.31829           360.06274          2372.58618          1845.40425          2732.80346           459.42875          1311.39223          1456.17991           914.49608           293.41501          2750.77497           409.39653           509.51338           419.02104          2280.14559          1393.10930           423.84949          1908.78886          2608.26723           262.18853          1367.05715           539.57833          1297.72243           442.80555          1496.69497           657.74059           334.14093          1474.92821          1349.95023           411.36635           730.16184           540.71865          1276.67630          1876.27920           923.61354           535.63153           588.98338          1363.25617          1469.91546          1315.65000           795.67512           563.53461           868.47794          2404.32921          1741.01932          1538.54765          2448.18833           913.51167           649.32067          1067.20548          2598.90349           643.87533           874.67758           640.62666          1832.53752           883.88844           378.95107          2467.37716          1397.49454          1263.15990           279.49544          1612.25046           538.74025          1443.39361           461.74456          1329.98618           454.15962           412.29360          1957.78504           966.73897          1536.37019          1548.04915           604.38007          2066.05902          1227.29620          3365.28309           617.06407          1152.81000          2100.37613          1112.41582          1014.74066          1287.90866          1193.68106          3975.52270           781.71098          3185.11536          1642.72366          1448.79645          1129.87803          1678.29449           756.99555          2366.66126           848.11413          1319.20669           430.30081          2110.07118          1349.10507           812.07226          1250.44587          2372.18463           756.35701           775.70323          1094.57359          1712.58143          1733.34127           778.51898          2005.55253           806.30822           283.22244          2136.44294          3703.70003           961.39347           437.67271          1494.51451           662.74322          1010.88675          1963.68770           495.21201           502.57047          2334.22973          2786.93548          1177.26087           356.15998           662.23447           714.03281          1289.58117          1053.48278          1013.19239          1566.73842           735.90959          1501.83160           705.92520           998.02172          2642.16978          1986.69658           622.09731           323.26859           556.50960          1247.92735           713.51292          1183.81456          3534.28934          1255.61455           357.09402           475.32380          1195.56956          1170.35250           801.76043           393.87994          3124.44385          1409.15611           363.10612          3249.96354          2520.76726           432.49887          1412.36791          1245.43171          1022.91906          1112.84356          1022.68026           521.64995          1607.93760          1476.11007          1508.66186          1216.66776           650.26684          1787.30350           453.87591          1132.48453           549.16441           435.88444           667.79868          1844.19200          1058.72509           862.43122           451.92413           382.82977          1838.50580          1111.77137          4301.70998          4867.82250          3398.20971          2019.69918          2027.63079          2313.48459          3628.00688          5961.35650           703.55042          4843.33366           405.85783          1062.22049          1396.44369           608.25775          4409.30425          5652.18765          1157.06323           420.29884          2005.06121          2562.35164           704.33165           785.58296          1391.51941          4031.97050          1248.74277          2419.68982          1209.83981           577.08397          1439.09445          1523.78165           463.76220          3147.60806           533.93524          1283.76944          5932.55594          3668.51347          1634.41300          5690.40746           289.25518           865.95904           506.13610          1826.83256          2724.36263          1802.02639          3205.85714          1757.16820          2505.98491           761.56741          1510.23251          1318.09442          1758.27578          9689.63659          3446.54109          1003.14512          4409.45911          4366.98039           769.94383           682.17701          5659.61891          2602.95597          4045.66696          5463.79904          1380.92443           859.92291           716.10548           496.29037           826.14452          4604.97299          1667.80770           997.06262          1634.33899           327.56126          1035.89263          1799.12858          3841.02676           950.80438           928.81910           708.96079           698.58030          1479.07485          1378.68576           776.54126          3068.07676          2844.35400          3114.91790          3244.43713          5403.16639          5324.46743          2538.98173           553.54899          4596.26364          1117.61911          1648.96291           725.63816          1339.70438           884.33187           381.18234          7016.95084          5386.92078          1507.04937          1507.54552          2682.11469          2080.93296          2854.02697          3070.13849           906.95082          1147.84863           558.99445           984.40712           400.98904           532.11447           875.51122           562.15159          1986.85760          5634.91217          3586.77056          1525.21091          2366.30032          1444.45696          1524.78631          7860.09921          4825.44056          1824.43472           418.46016           654.01270          5729.04050           646.40932          3579.12247          4522.07467          1016.42206          2279.53154           642.42224          1098.60908          1023.66356          2282.95426          2305.14285          2443.45040           615.53864           501.05646          1093.92526           347.06880           614.88748           411.01216          3221.76449          5132.77092           486.65323          2775.38270           797.75917          2473.20842          1150.38507           817.93177           592.28659           665.73872           636.49720          1944.33359           702.16434          1344.41139           650.98162          2476.97592          1837.05832          4443.12863          2518.92876           569.77318           547.12963           326.63023          2954.41226           699.58258           672.25352          1287.22871          2375.68864           926.31690           752.69928           522.53759          1242.46051          1039.45785          1573.56380          1393.65818           599.94248           680.96087           672.87585          2596.92010          2217.25857          1149.76441          7869.75460          1017.29446           835.48385           937.73517          1391.97436          2613.74103          1545.83422          1484.05594          1515.74279          2582.86020           913.18390          7446.91872          1412.31009          2665.70336           772.08131          1102.69986          4409.07685          3166.56229           724.33904          1090.46063          3116.01547           500.14423           513.01874          1128.80792          2714.62914          6500.79352          1422.67085          6780.36865          1272.38059          1645.08632          1538.26716          1122.65820           466.04128           750.53719          2582.03721           687.63466          4210.13172           612.66102          3327.79753           909.99509           687.72563          1381.90125          1901.86719          2704.22397          5224.26496          2558.82683          1384.82666          1650.77375          1269.22483          6557.58969          7226.26332          1978.46943           926.60323          2518.24190           608.10006          1074.81476           881.58587          2600.47911          1083.96772           945.63238           598.07519           607.08482          3522.18223           999.43245           714.39530          6632.84951          4205.16977          2416.66164          1261.57546          9232.55610           821.13303          2295.01096          3173.76994          2071.78369          1094.18152          2945.52516          6380.08442          1797.95656           395.90983           653.02426           904.30968          1818.88440          1673.55527           665.50985           644.82387          7762.00878           704.82259          1262.94121          1830.20067          3675.72226          5628.80003           448.58263          1392.42118           865.61976          1124.99932          1940.74045           753.73254           846.62858          1473.55613           895.82909           597.48987           403.65416           821.53530          2821.10394           517.51384          2867.22720          1742.59005          2195.71205          1247.48410          1738.35298          1586.86834           415.81535          3880.68246          1402.27756          1914.87907          1907.14673          2127.87825          5794.00931           925.06312          4950.20575           548.42074           737.39787          1439.39906          1093.81118          7299.28053          2684.32825           841.46740          1579.50514          4320.36135          3343.83409           589.73012          5325.33197          1488.53862          2623.50781          1039.90275          3669.04901          4005.77402           505.19631          3612.43137          4205.95675          2596.12251          5709.51974           804.38045           821.03579          1089.44864          2257.60121           479.71689          8217.02596          4322.94758           595.78969          1621.49840          1617.41613          1960.43980           809.37205          1082.90795         13787.01492           728.26903          2334.33223          1197.82220           491.70780           751.26246          2229.07836          4946.45174          6561.59105          1637.24016          2732.29517          2470.18717          4314.93035           727.29185          1315.52859          1993.99355          1750.48283          5591.26569           572.45935          1086.21397          2743.69020           828.65939          3824.96163          2114.56060          6417.92408          2380.32550          1236.94130          1087.11768           622.05902          5563.12104          6941.62287          2248.65768           347.82564           381.30236           782.90847           767.40739          6054.22889          1290.66530          2144.88710          3000.91723          2794.89588          5865.48390          5806.24327           373.69794           588.38917           790.98855          1188.51419           608.78987          4785.81080          3760.45180          1325.48386           860.51388          1015.85893          2381.48273          3698.10733          2325.02627          1905.77749           863.31155          4670.56025          7556.29314           495.92074           661.55477          1731.54891          7642.66526          2050.96831          2914.07927          5313.61198           842.98106          1758.85076          4951.17771           585.54099          1476.77765          1118.03223          5462.80575           905.02836          1759.21606          3231.14866          5806.06309          4957.83461          5628.69484          4673.47798          4214.00803          1853.34588           785.38097          3681.99412          9532.55961           607.11336          2254.15999          2493.26416           276.50060          2468.48098          3477.36135          2425.83954           436.88178          4913.68417           885.25880          3211.95191          4062.38291          1746.56853           751.60546          2871.01582          3576.98886          5562.07332          5959.02755          5018.23109           652.35276           620.87172          1193.42741          5967.30906          1036.24676          2544.99161           894.03820           734.648