# vtk DataFile Version 3.0
Output from R2
ASCII
DATASET UNSTRUCTURED_GRID
POINTS       1414 double
     0.00000  2968.10000   0.
     1.54000  2966.60000   0.
     3.08000  2964.90000   0.
     4.61000  2964.10000   0.
     6.15000  2963.30000   0.
     7.69000  2962.60000   0.
     9.23000  2961.50000   0.
    10.76000  2960.70000   0.
    12.30000  2960.00000   0.
    13.84000  2959.30000   0.
    15.38000  2958.70000   0.
    16.91000  2958.10000   0.
    18.45000  2957.30000   0.
    19.99000  2956.60000   0.
    21.52000  2955.80000   0.
    23.06000  2955.00000   0.
    24.60000  2954.30000   0.
    26.14000  2953.50000   0.
    27.68000  2952.80000   0.
    29.21000  2951.90000   0.
    30.75000  2951.10000   0.
    32.29000  2950.20000   0.
    33.83000  2949.50000   0.
    35.36000  2948.70000   0.
    36.90000  2948.10000   0.
    38.44000  2947.30000   0.
    39.98000  2946.70000   0.
    41.51000  2946.10000   0.
    43.05000  2945.50000   0.
    44.59000  2945.10000   0.
    46.13000  2944.50000   0.
    47.66000  2944.10000   0.
    49.20000  2943.60000   0.
    50.74000  2943.40000   0.
    52.28000  2943.00000   0.
    53.81000  2942.50000   0.
    55.35000  2942.10000   0.
    56.89000  2941.60000   0.
    58.43000  2941.00000   0.
    59.96000  2940.60000   0.
    61.50000  2940.10000   0.
    63.04000  2939.50000   0.
    64.58000  2939.10000   0.
    66.11000  2939.20000   0.
    67.65000  2939.20000   0.
    69.19000  2939.10000   0.
    70.73000  2938.90000   0.
    72.26000  2938.60000   0.
    73.80000  2938.30000   0.
    75.34000  2938.50000   0.
    76.88000  2938.70000   0.
    78.41000  2938.60000   0.
    79.95000  2938.80000   0.
    81.49000  2938.90000   0.
    83.03000  2939.10000   0.
    84.56000  2939.10000   0.
     3.42000  2957.55000   0.
     8.97000  2954.51000   0.
    14.52000  2951.86000   0.
    20.07000  2949.38000   0.
    25.63000  2946.59000   0.
    31.18000  2943.67000   0.
    36.73000  2940.99000   0.
    42.28000  2938.62000   0.
    47.83000  2936.87000   0.
    53.39000  2935.46000   0.
    58.94000  2933.69000   0.
    64.49000  2931.95000   0.
    70.04000  2931.81000   0.
    75.60000  2931.36000   0.
    81.15000  2931.70000   0.
     0.51333  2967.60000   0.
     1.02667  2967.10000   0.
     2.05333  2966.03333   0.
     2.56667  2965.46667   0.
     3.59000  2964.63333   0.
     4.10000  2964.36667   0.
     5.12333  2963.83333   0.
     5.63667  2963.56667   0.
     6.66333  2963.06667   0.
     7.17667  2962.83333   0.
     8.20333  2962.23333   0.
     8.71667  2961.86667   0.
     9.74000  2961.23333   0.
    10.25000  2960.96667   0.
    11.27333  2960.46667   0.
    11.78667  2960.23333   0.
    12.81333  2959.76667   0.
    13.32667  2959.53333   0.
    14.35333  2959.10000   0.
    14.86667  2958.90000   0.
    15.89000  2958.50000   0.
    16.40000  2958.30000   0.
    17.42333  2957.83333   0.
    17.93667  2957.56667   0.
    18.96333  2957.06667   0.
    19.47667  2956.83333   0.
    20.50000  2956.33333   0.
    21.01000  2956.06667   0.
    22.03333  2955.53333   0.
    22.54667  2955.26667   0.
    23.57333  2954.76667   0.
    24.08667  2954.53333   0.
    25.11333  2954.03333   0.
    25.62667  2953.76667   0.
    26.65333  2953.26667   0.
    27.16667  2953.03333   0.
    28.19000  2952.50000   0.
    28.70000  2952.20000   0.
    29.72333  2951.63333   0.
    30.23667  2951.36667   0.
    31.26333  2950.80000   0.
    31.77667  2950.50000   0.
    32.80333  2949.96667   0.
    33.31667  2949.73333   0.
    34.34000  2949.23333   0.
    34.85000  2948.96667   0.
    35.87333  2948.50000   0.
    36.38667  2948.30000   0.
    37.41333  2947.83333   0.
    37.92667  2947.56667   0.
    38.95333  2947.10000   0.
    39.46667  2946.90000   0.
    40.49000  2946.50000   0.
    41.00000  2946.30000   0.
    42.02333  2945.90000   0.
    42.53667  2945.70000   0.
    43.56333  2945.36667   0.
    44.07667  2945.23333   0.
    45.10333  2944.90000   0.
    45.61667  2944.70000   0.
    46.64000  2944.36667   0.
    47.15000  2944.23333   0.
    48.17333  2943.93333   0.
    48.68667  2943.76667   0.
    49.71333  2943.53333   0.
    50.22667  2943.46667   0.
    51.25333  2943.26667   0.
    51.76667  2943.13333   0.
    52.79000  2942.83333   0.
    53.30000  2942.66667   0.
    54.32333  2942.36667   0.
    54.83667  2942.23333   0.
    55.86333  2941.93333   0.
    56.37667  2941.76667   0.
    57.40333  2941.40000   0.
    57.91667  2941.20000   0.
    58.94000  2940.86667   0.
    59.45000  2940.73333   0.
    60.47333  2940.43333   0.
    60.98667  2940.26667   0.
    62.01333  2939.90000   0.
    62.52667  2939.70000   0.
    63.55333  2939.36667   0.
    64.06667  2939.23333   0.
    65.34500  2939.15000   0.
    66.88000  2939.20000   0.
    68.42000  2939.15000   0.
    69.70333  2939.03333   0.
    70.21667  2938.96667   0.
    71.24000  2938.80000   0.
    71.75000  2938.70000   0.
    72.77333  2938.50000   0.
    73.28667  2938.40000   0.
    74.31333  2938.36667   0.
    74.82667  2938.43333   0.
    75.85333  2938.56667   0.
    76.36667  2938.63333   0.
    77.64500  2938.65000   0.
    78.92333  2938.66667   0.
    79.43667  2938.73333   0.
    80.72000  2938.85000   0.
    82.00333  2938.96667   0.
    82.51667  2939.03333   0.
    83.79500  2939.10000   0.
     0.08400  2959.57200   0.
     1.19600  2958.89800   0.
     2.30800  2958.22400   0.
     4.53000  2956.94200   0.
     5.64000  2956.33400   0.
     6.75000  2955.72600   0.
     7.86000  2955.11800   0.
    10.35750  2953.84750   0.
    11.74500  2953.18500   0.
    13.13250  2952.52250   0.
    15.90750  2951.24000   0.
    17.29500  2950.62000   0.
    18.68250  2950.00000   0.
    21.18200  2948.82200   0.
    22.29400  2948.26400   0.
    23.40600  2947.70600   0.
    24.51800  2947.14800   0.
    26.74000  2946.00600   0.
    27.85000  2945.42200   0.
    28.96000  2944.83800   0.
    30.07000  2944.25400   0.
    32.56750  2943.00000   0.
    33.95500  2942.33000   0.
    35.34250  2941.66000   0.
    38.11750  2940.39750   0.
    39.50500  2939.80500   0.
    40.89250  2939.21250   0.
    43.66750  2938.18250   0.
    45.05500  2937.74500   0.
    46.44250  2937.30750   0.
    49.22000  2936.51750   0.
    50.61000  2936.16500   0.
    52.00000  2935.81250   0.
    54.77750  2935.01750   0.
    56.16500  2934.57500   0.
    57.55250  2934.13250   0.
    60.32750  2933.25500   0.
    61.71500  2932.82000   0.
    63.10250  2932.38500   0.
    65.87750  2931.91500   0.
    67.26500  2931.88000   0.
    68.65250  2931.84500   0.
    71.43000  2931.69750   0.
    72.82000  2931.58500   0.
    74.21000  2931.47250   0.
    76.98750  2931.44500   0.
    78.37500  2931.53000   0.
    79.76250  2931.61500   0.
    82.53750  2931.75500   0.
    83.92500  2931.81000   0.
     6.60134  2937.05984   0.
    20.80435  2932.52560   0.
     3.78758  2946.36592   0.
    15.48523  2940.98228   0.
    29.30091  2934.50364   0.
    23.90594  2939.46561   0.
    40.87322  2931.62711   0.
     1.03219  2951.87344   0.
    10.83406  2946.32292   0.
    20.42668  2943.42459   0.
    48.80952  2930.83467   0.
    35.50309  2935.49258   0.
     7.54365  2949.73854   0.
    28.57967  2939.84283   0.
    15.90963  2945.83181   0.
    44.30452  2933.27820   0.
    -0.12722  2955.42655   0.
    24.47411  2943.04615   0.
     4.45051  2952.86019   0.
    40.01017  2935.22543   0.
    52.75593  2931.58993   0.
    13.75183  2934.27842   0.
    32.31862  2938.44653   0.
     0.40990  2931.04902   0.
    19.20708  2946.27332   0.
    57.19103  2930.55709   0.
    -0.97178  2947.27328   0.
    19.39705  2939.49643   0.
    11.08068  2950.12444   0.
    32.86215  2930.47012   0.
     7.41320  2941.82707   0.
    13.76382  2948.77946   0.
    27.17579  2942.79365   0.
     7.27112  2952.68663   0.
     2.71547  2954.94653   0.
    22.91159  2945.17994   0.
     2.00816  2941.86911   0.
    24.73355  2934.79062   0.
    47.86753  2934.00196   0.
    50.62083  2933.29089   0.
    60.15732  2930.28185   0.
    37.65425  2937.53830   0.
    44.64836  2929.77041   0.
    10.93416  2939.02064   0.
     4.26476  2949.76242   0.
    36.78915  2931.78219   0.
     7.36345  2946.13476   0.
    30.92470  2941.06806   0.
     6.19921  2931.10091   0.
    35.16618  2938.51604   0.
    16.36294  2929.87801   0.
    13.43632  2943.77014   0.
    42.64967  2935.50406   0.
    26.89596  2931.23775   0.
     1.59760  2936.73753   0.
    17.19200  2948.13905   0.
    -0.61497  2957.60981   0.
    26.49360  2937.36117   0.
     9.56799  2951.50953   0.
    17.55858  2943.77119   0.
    55.26825  2932.33039   0.
    22.03247  2936.46128   0.
    16.10828  2937.24515   0.
    22.48452  2941.40733   0.
    20.86327  2946.43955   0.
    29.71126  2937.35408   0.
    32.14062  2935.59882   0.
    45.26358  2935.44707   0.
    29.19256  2942.39482   0.
    25.22337  2944.48902   0.
    25.77440  2940.40763   0.
     5.12787  2951.33100   0.
     9.72036  2943.07255   0.
     0.63027  2944.64860   0.
     5.15669  2954.13690   0.
    33.80274  2940.56791   0.
     1.57076  2956.41210   0.
     9.31000  2947.97928   0.
     9.87726  2933.53233   0.
    53.60824  2932.85261   0.
    40.63972  2936.89193   0.
    13.47285  2946.23828   0.
    37.68088  2934.75035   0.
    46.32767  2931.88185   0.
    18.64740  2941.16071   0.
    13.09413  2950.32980   0.
    18.01744  2935.92389   0.
     0.55332  2948.73049   0.
     5.35766  2947.55011   0.
    42.44669  2933.52960   0.
    57.75733  2932.24094   0.
    23.68300  2931.83870   0.
    19.94397  2947.74183   0.
    61.81887  2931.15328   0.
[...]
POINT_DATA      1414
CELL_DATA      2568
SCALARS Resistivity(ohm.m) double 1
LOOKUP_TABLE default
          1013.07356          1593.51934          2261.17649           984.09355           544.73632          2259.73867          1423.11314          1576.46711          1566.32814          1921.68699           751.59363          1896.59325           595.69255          2485.49769          2414.59542          1850.05404          1439.96208           427.02159           482.02051          2546.65085          1319.33070          1762.33255          1115.19577           569.14114          1783.75099           503.69029           276.48528          2216.58577          2257.20295          2219.90565           502.56089           505.60930          1508.81829           400.50496           413.89113          1836.17278           722.96240           872.39879          1084.37457          1721.36390          1764.12857           674.28739           483.09181          2434.14328           369.86366           416.81203          3275.11531           790.11762           611.12410           972.24664          2877.11427          1789.82669           947.03223          1457.51627          2275.21639           844.74815           406.53082          2188.76042           430.78019           994.84434           557.46072          2204.46125           425.75236          1743.94095           286.94732          1466.67851          2108.77941          1860.47398           325.42671           712.89069           485.62238           785.28625          2076.37041           445.49389           333.15292          3141.33800          1233.90384           421.99638           323.61823          3099.47682          2942.63996          1478.87742           414.50936           431.96015          2069.94980           767.65223           377.61137          2113.58941           887.99154          1718.15544           943.76556           393.18495          2241.12455           366.42255          1961.88279          2003.54109           503.40320          1091.34992          2272.76286           908.07810          1355.56194           553.08104           624.65613           696.64517          1031.51905          1604.80274           531.52881           882.50500          2202.36021          1158.28249           400.97605          1189.56596          2680.11857          1608.08532          2030.44707          1203.39684          1090.31248          1358.19051           464.40168           359.60836          2435.44384          1205.73176          3297.80647           700.62993           478.59032          2041.08618          2531.92318          3511.10618          1643.98102          1539.62354          1967.51497           980.97271          1105.00957          2414.78761           780.77735          2997.39397           386.67148          1558.39690           913.44298          1252.99621          1427.18204           531.21767           609.95035          1448.47991          1513.79909           570.59735           461.22981          1287.01688          1881.33547           532.01898          2210.28791          1875.75775           861.00639           675.62189          2453.10399           303.05033          1576.19214           396.00587          2294.17043          1144.85303          1067.98720           525.18151          2379.82271           484.01357          2122.41217           567.77269          1591.58256          1884.07516          1879.12811          1605.32994           698.97650           732.27710           671.93679           304.57356           408.05955           922.84546           773.96263          3680.04312          2797.54764          1004.86301          2367.44530          1366.19779          1893.19588           703.91572           555.88520           885.57612           815.96401           638.02735           850.67525          2702.95202          1083.13389          2633.83793           596.81849          2938.13872           297.93043           516.77346          2870.08623          1946.12489          1070.80917           430.45987           292.27278           819.63615          1598.46555          1292.72496          1813.54420           940.02437          3921.76690          2237.29449           409.56660          2144.88265          1153.88609           596.66605           426.14356           382.15251           552.21477          1039.58016          2490.50655           479.59381          1078.63064           527.37780           881.84087          1162.55015           982.60772           389.75585           623.32165           642.71524           367.84280           555.18591          1192.70686           334.76784          1049.22325          2072.47042          1223.51585          3080.00673          2578.85389          1556.31874          2655.56310          1332.96527          1221.44109          1187.29992          2844.16300           633.27357           884.94286           447.01283          2708.01157           288.42248          1698.58218           501.36989           425.23064          2007.26198           274.90328          1985.71431          1557.20882           666.85803          1930.26134           885.59886           623.19716           694.30590           669.56891          2990.22258           580.53647          2091.99459           449.92514           464.43445           443.44058          1473.91641           406.50511          2275.94370           846.41035          2254.49809           978.50211          2008.36174          2503.58573          2268.47777           450.79490          1429.09697          2132.98752           436.76560           681.74484           635.36203           437.66472          1253.44062           308.50900           855.74724           869.31467          2285.74339           480.81406          2612.85658           609.35680           436.53516           938.82111           339.50319          2480.97394           657.24494          1860.80139          2377.88359          1241.32974           537.42916           477.51930           633.24675          1060.81105           446.09126          2751.94257          2730.36113           394.90440          1752.78093          1163.48223          1355.66774          1913.49972           376.23608           676.92364           582.65336           324.00387          2329.36499           758.03898           375.18939           514.92938          1143.17946          2856.91811           464.12322          3427.83819           379.97378           929.38000           420.32823           542.00515          1061.24524           467.33086          1271.14914           945.78431          3102.98682          1598.61246          2123.47130           529.39333          1399.40493           352.45373           395.10540           588.05006           593.17589          3358.80946           543.79748          2213.82062           408.02005          2066.10743           434.04005           572.74319          1719.69121          1057.44930          1131.10686           457.85933          2219.31549           428.03247          2638.98317           741.69980           406.93355           469.84193          2086.62824           505.17635          1383.65675           345.66850           410.06990           809.34880          1392.63693           846.07770           545.18562          1201.85126           524.55906           399.55794          2397.40531          1579.64602          2751.09708           425.87001          1172.46159          1237.64378          1024.08314           312.42138          2885.30647           391.57549           463.27441           407.71004          2010.96225          1189.39964           420.00469          1704.18779          2618.80738           273.94014          1206.32255           573.81799          1246.00371           444.26845          1346.18814           695.79910           353.96933          1289.10299          1511.71578           411.46856           778.78728           586.50010          1385.80968          1623.45118           960.54686           573.30370           632.00287          1163.54631          1340.03982          1135.41443           802.19903           519.97947           861.48277          2319.67970          1442.07354          1305.75183          2276.21199           973.83477           584.54913          1209.89514          2712.26023           657.31462           837.23593           669.94699          1542.61585           933.42245           390.60477          2279.95443          1260.08208          1112.91897           307.11994          1695.45888           572.64597          1240.97657           453.28454          1150.07384           442.17504           410.84431          2066.79088           939.28871          1290.22192          1298.53821           625.18890          1844.54486          1366.28844          3722.39962           562.64812          1038.29880          2192.58895          1019.08425           981.29100          1173.27827          1062.72400          4166.46269           791.91439          3525.84544          1362.45249          1476.45571          1263.02100          1696.86196           772.36369          2210.61944           847.50265          1221.46976           412.63722          1774.29889          1154.16996           818.81387          1296.31746          2085.09514           770.39725           832.08604          1148.26152          1814.38612          1453.04050           830.53317          1682.70924           816.32416           302.30936          1786.83838          3913.76297          1006.19165           407.88348          1380.41746           690.58734          1136.35372          2018.25188           513.53807           497.63852          2012.91535          3063.19643          1209.61353           383.36320           666.30670           736.32948          1118.49437          1087.65162           962.47775          1399.67775           752.55026          1349.08299           725.45729           954.59005          2617.73655          1686.90802           643.67406           351.66142           586.25999          1116.16545           732.21463          1074.21293          3692.57886          1097.79410           377.88324           487.45000          1190.38146          1056.31952           817.45707           430.69766          3286.47952          1292.18065           392.19974          3382.92760          2406.36125           407.34658          1207.11719          1091.44251           963.09530          1113.20579           964.01977           559.60890          1470.26580          1314.86649          1329.37195          1306.43691           674.49149          1616.42605           428.48051          1239.96606           591.48186           412.16575           690.35373          1518.49871           987.85004           860.76172           423.96531           423.77194          1512.10385          1017.15302          4348.33147          5173.14625          3439.92388          2065.78548          1934.91511          2377.16516          3457.77536          5057.31786           667.51677          4341.21249           451.85124          1006.89410          1258.64029           623.48767          4062.60146          5147.36178          1222.34160           449.69822          1870.02236          2713.99200           746.29287           790.15355          1382.67435          4464.16510          1336.14583          2715.17102          1226.54626           593.40435          1464.77648          1647.51526           491.90890          3667.36294           516.15613          1390.60053          5691.41742          4022.15521          1659.05883          6099.94495           281.76021           787.16017           482.98337          1944.58630          2983.94055          1594.77175          2958.33728          1683.91073          2562.35802           719.78463          1344.12874          1413.22858          1765.01840          9016.79969          3445.19688           891.48787          4792.75666          4013.53675           764.97393           653.70752          5106.29990          2586.75803          4382.57658          5788.31353          1479.81522           799.64251           726.01912           546.17061           768.72240          4369.56781          1512.80235           938.82315          1792.47814           313.24140          1062.19884          1618.44449          3934.95986          1020.81380           973.34470           681.90342           696.40356          1582.71395          1439.06192           824.11031          3144.24361          2621.66453          3615.57191          3244.75669          5513.96265          5362.65216          2628.61790           566.13864          5101.07653          1163.44488          1518.83492           689.65364          1403.15505           945.78243           391.95211          7481.52654          4889.75477          1467.92595          1499.25305          2939.96263          2233.83018          3052.38417          2721.01027           843.67061          1218.84672           570.06754          1041.36383           423.32780           528.41471           847.62176           594.79585          1904.38145          5400.94545          3562.05501          1500.67377          2544.57127          1277.76409          1661.08123          7477.54943          4973.24263          1954.05477           433.95719           613.72710          5199.77393           631.99466          4063.54315          4958.85032          1019.25317          2353.93242           675.81973          1193.35924          1016.42717          2301.10257          2385.36469          2583.32329           600.74621           531.76675          1178.45375           344.57013           546.30961           451.79574          3450.39365          5334.01297           496.93305          2825.74938           811.14346          2461.39168          1153.00848           849.91241           583.18075           653.34868           608.73282          1978.05839           694.90236          1335.59067           640.11499          2363.23570          2017.01738          4723.70556          2433.51298           591.40505           549.10760           314.40690          2948.72613           737.56756           722.07330          1295.41740          2598.35753           977.40912           798.73452           494.56996          1269.85385          1101.37833          1645.28155          1411.16508           588.22939           669.54011           646.26330          2745.04103          2230.75596          1180.16810          7205.40974           991.69084           874.27878           897.32330          1573.78995          2364.08497          1700.42051          1541.45808          1682.71086          2469.99577           821.54357          7766.33055          1445.20207          2890.58291           797.20196          1202.06026          4103.46191          3165.58636           716.79355          1097.55127          3221.51867           497.70517           493.74611          1179.87929          2553.10873          6709.08628          1380.79673          6656.02604          1308.71567          1724.58521          1576.68983          1135.50019           425.58294           711.77985          2726.03068           672.12927          4200.02468           595.40378          3238.20435           868.91570           756.52604          1333.29572          1918.58327          2935.76993          5486.73236          2574.43689          1360.83613          1623.25128          1195.58625          6699.32608          7034.48338          2135.02024           917.93624          2724.55469           596.12152          1129.56972           737.89327          2703.31968          1138.91108           991.03496           571.04799           581.15865          3919.35703          1004.08069           745.05659          6839.20838          4184.86281          2104.63671          1331.93981         10287.01451           707.86845          2572.88227          3366.41062          2011.93952          1133.85576          2885.57472          6220.84635          1695.37324           393.34212           662.86980           846.29126          1648.01703          1586.42613           638.49195           621.61013          7739.96370           697.34340          1336.33707          1776.94092          3756.80740          5099.18454           495.61593          1236.53541           821.29998          1002.57900          1734.41507           689.24202           823.84800          1475.66568           828.31415           579.14198           439.48748           820.91756          3193.88269           483.55948          3260.58593          1592.08006          2246.16869          1314.60781          1660.75641          1700.17774           444.57771          4113.59765          1478.44217          2037.79783          1992.50641          2230.62672          5324.25361           980.26029          5221.39568           519.03633           752.82511          1604.72661          1132.13769          7063.62810          2895.27382           850.13893          1587.63195          4489.61975          3377.32158           622.52865          5398.43805          1347.63494          2757.75064          1062.03904          3751.16601          3834.14021           515.33412          3441.88428          4293.31538          2491.03970          5407.35967           837.56244           797.12493          1121.60362          2316.93839           482.95533          8033.84410          4121.84306           641.36319          1590.37990          1711.72357          1832.84063           839.69500          1152.60585         14160.90091           702.55851          2233.67195          1294.33380           492.76064           731.91967          2494.32252          4973.03973          6491.46594          1779.59757          2501.30321          2300.49073          4529.28718           661.35374          1358.73248          2152.30382          1794.87185          5121.03350           588.46150          1132.26771          2786.08799           767.14284          3345.42168          2314.94900          6379.31597          2797.79723          1299.22951          1103.45975           578.72794          5184.44856          6787.72011          2357.79580           303.08537           389.38426           787.04766           759.64356          6053.42370          1264.30460          2206.24811          3102.99807          2797.80933          5973.35742          5705.64446           364.48851           542.09478           729.99616          1305.83458           609.66146          4721.86021          3854.69592          1239.01294           897.38239          1041.43532          2369.08182          3572.30208          2217.26878          1963.93144           854.38183          4518.81575          7747.16154           479.50410           712.96280          1876.61034          7077.33053          2167.02130          2682.99560          5565.25703           876.21592          1877.83592          4446.43991           533.50670          1592.17957          1218.57779          5296.52032           894.38161          1936.05056          3234.77391          5792.83947          4676.67436          5749.27862          5014.59146          4070.15112          1616.10523           799.86146          3768.00946          9504.52441           606.18426          2444.69442          2714.84524           285.08194          2429.88110          3591.28598          2567.49480           410.73167          4681.38089           874.00291          3246.84173          4072.05905          1748.27372           748.99276          2770.09144          3837.80946          4991.66547          5968.38636          5274.60355           640.29470           626.72355          1252.65383          5549.80447          1071.92983          2505.84206           897.36379           696.233