# vtk DataFile Version 3.0
Output from R2
ASCII
DATASET UNSTRUCTURED_GRID
POINTS       1414 double
     0.00000  2968.10000   0.
     1.54000  2966.60000   0.
     3.08000  2964.90000   0.
     4.61000  2964.10000   0.
     6.15000  2963.30000   0.
     7.69000  2962.60000   0.
     9.23000  2961.50000   0.
    10.76000  2960.70000   0.
    12.30000  2960.00000   0.
    13.84000  2959.30000   0.
    15.38000  2958.70000   0.
    16.91000  2958.10000   0.
    18.45000  2957.30000   0.
    19.99000  2956.60000   0.
    21.52000  2955.80000   0.
    23.06000  2955.00000   0.
    24.60000  2954.30000   0.
    26.14000  2953.50000   0.
    27.68000  2952.80000   0.
    29.21000  2951.90000   0.
    30.75000  2951.10000   0.
    32.29000  2950.20000   0.
    33.83000  2949.50000   0.
    35.36000  2948.70000   0.
    36.90000  2948.10000   0.
    38.44000  2947.30000   0.
    39.98000  2946.70000   0.
    41.51000  2946.10000   0.
    43.05000  2945.50000   0.
    44.59000  2945.10000   0.
    46.13000  2944.50000   0.
    47.66000  2944.10000   0.
    49.20000  2943.60000   0.
    50.74000  2943.40000   0.
    52.28000  2943.00000   0.
    53.81000  2942.50000   0.
    55.35000  2942.10000   0.
    56.89000  2941.60000   0.
    58.43000  2941.00000   0.
    59.96000  2940.60000   0.
    61.50000  2940.10000   0.
    63.04000  2939.50000   0.
    64.58000  2939.10000   0.
    66.11000  2939.20000   0.
    67.65000  2939.20000   0.
    69.19000  2939.10000   0.
    70.73000  2938.90000   0.
    72.26000  2938.60000   0.
    73.80000  2938.30000   0.
    75.34000  2938.50000   0.
    76.88000  2938.70000   0.
    78.41000  2938.60000   0.
    79.95000  2938.80000   0.
    81.49000  2938.90000   0.
    83.03000  2939.10000   0.
    84.56000  2939.10000   0.
     3.42000  2957.55000   0.
     8.97000  2954.51000   0.
    14.52000  2951.86000   0.
    20.07000  2949.38000   0.
    25.63000  2946.59000   0.
    31.18000  2943.67000   0.
    36.73000  2940.99000   0.
    42.28000  2938.62000   0.
    47.83000  2936.87000   0.
    53.39000  2935.46000   0.
    58.94000  2933.69000   0.
    64.49000  2931.95000   0.
    70.04000  2931.81000   0.
    75.60000  2931.36000   0.
    81.15000  2931.70000   0.
     0.51333  2967.60000   0.
     1.02667  2967.10000   0.
     2.05333  2966.03333   0.
     2.56667  2965.46667   0.
     3.59000  2964.63333   0.
     4.10000  2964.36667   0.
     5.12333  2963.83333   0.
     5.63667  2963.56667   0.
     6.66333  2963.06667   0.
     7.17667  2962.83333   0.
     8.20333  2962.23333   0.
     8.71667  2961.86667   0.
     9.74000  2961.23333   0.
    10.25000  2960.96667   0.
    11.27333  2960.46667   0.
    11.78667  2960.23333   0.
    12.81333  2959.76667   0.
    13.32667  2959.53333   0.
    14.35333  2959.10000   0.
    14.86667  2958.90000   0.
    15.89000  2958.50000   0.
    16.40000  2958.30000   0.
    17.42333  2957.83333   0.
    17.93667  2957.56667   0.
    18.96333  2957.06667   0.
    19.47667  2956.83333   0.
    20.50000  2956.33333   0.
    21.01000  2956.06667   0.
    22.03333  2955.53333   0.
    22.54667  2955.26667   0.
    23.57333  2954.76667   0.
    24.08667  2954.53333   0.
    25.11333  2954.03333   0.
    25.62667  2953.76667   0.
    26.65333  2953.26667   0.
    27.16667  2953.03333   0.
    28.19000  2952.50000   0.
    28.70000  2952.20000   0.
    29.72333  2951.63333   0.
    30.23667  2951.36667   0.
    31.26333  2950.80000   0.
    31.77667  2950.50000   0.
    32.80333  2949.96667   0.
    33.31667  2949.73333   0.
    34.34000  2949.23333   0.
    34.85000  2948.96667   0.
    35.87333  2948.50000   0.
    36.38667  2948.30000   0.
    37.41333  2947.83333   0.
    37.92667  2947.56667   0.
    38.95333  2947.10000   0.
    39.46667  2946.90000   0.
    40.49000  2946.50000   0.
    41.00000  2946.30000   0.
    42.02333  2945.90000   0.
    42.53667  2945.70000   0.
    43.56333  2945.36667   0.
    44.07667  2945.23333   0.
    45.10333  2944.90000   0.
    45.61667  2944.70000   0.
    46.64000  2944.36667   0.
    47.15000  2944.23333   0.
    48.17333  2943.93333   0.
    48.68667  2943.76667   0.
    49.71333  2943.53333   0.
    50.22667  2943.46667   0.
    51.25333  2943.26667   0.
    51.76667  2943.13333   0.
    52.79000  2942.83333   0.
    53.30000  2942.66667   0.
    54.32333  2942.36667   0.
    54.83667  2942.23333   0.
    55.86333  2941.93333   0.
    56.37667  2941.76667   0.
    57.40333  2941.40000   0.
    57.91667  2941.20000   0.
    58.94000  2940.86667   0.
    59.45000  2940.73333   0.
    60.47333  2940.43333   0.
    60.98667  2940.26667   0.
    62.01333  2939.90000   0.
    62.52667  2939.70000   0.
    63.55333  2939.36667   0.
    64.06667  2939.23333   0.
    65.34500  2939.15000   0.
    66.88000  2939.20000   0.
    68.42000  2939.15000   0.
    69.70333  2939.03333   0.
    70.21667  2938.96667   0.
    71.24000  2938.80000   0.
    71.75000  2938.70000   0.
    72.77333  2938.50000   0.
    73.28667  2938.40000   0.
    74.31333  2938.36667   0.
    74.82667  2938.43333   0.
    75.85333  2938.56667   0.
    76.36667  2938.63333   0.
    77.64500  2938.65000   0.
    78.92333  2938.66667   0.
    79.43667  2938.73333   0.
    80.72000  2938.85000   0.
    82.00333  2938.96667   0.
    82.51667  2939.03333   0.
    83.79500  2939.10000   0.
     0.08400  2959.57200   0.
     1.19600  2958.89800   0.
     2.30800  2958.22400   0.
     4.53000  2956.94200   0.
     5.64000  2956.33400   0.
     6.75000  2955.72600   0.
     7.86000  2955.11800   0.
    10.35750  2953.84750   0.
    11.74500  2953.18500   0.
    13.13250  2952.52250   0.
    15.90750  2951.24000   0.
    17.29500  2950.62000   0.
    18.68250  2950.00000   0.
    21.18200  2948.82200   0.
    22.29400  2948.26400   0.
    23.40600  2947.70600   0.
    24.51800  2947.14800   0.
    26.74000  2946.00600   0.
    27.85000  2945.42200   0.
    28.96000  2944.83800   0.
    30.07000  2944.25400   0.
    32.56750  2943.00000   0.
    33.95500  2942.33000   0.
    35.34250  2941.66000   0.
    38.11750  2940.39750   0.
    39.50500  2939.80500   0.
    40.89250  2939.21250   0.
    43.66750  2938.18250   0.
    45.05500  2937.74500   0.
    46.44250  2937.30750   0.
    49.22000  2936.51750   0.
    50.61000  2936.16500   0.
    52.00000  2935.81250   0.
    54.77750  2935.01750   0.
    56.16500  2934.57500   0.
    57.55250  2934.13250   0.
    60.32750  2933.25500   0.
    61.71500  2932.82000   0.
    63.10250  2932.38500   0.
    65.87750  2931.91500   0.
    67.26500  2931.88000   0.
    68.65250  2931.84500   0.
    71.43000  2931.69750   0.
    72.82000  2931.58500   0.
    74.21000  2931.47250   0.
    76.98750  2931.44500   0.
    78.37500  2931.53000   0.
    79.76250  2931.61500   0.
    82.53750  2931.75500   0.
    83.92500  2931.81000   0.
     6.60134  2937.05984   0.
    20.80435  2932.52560   0.
     3.78758  2946.36592   0.
    15.48523  2940.98228   0.
    29.30091  2934.50364   0.
    23.90594  2939.46561   0.
    40.87322  2931.62711   0.
     1.03219  2951.87344   0.
    10.83406  2946.32292   0.
    20.42668  2943.42459   0.
    48.80952  2930.83467   0.
    35.50309  2935.49258   0.
     7.54365  2949.73854   0.
    28.57967  2939.84283   0.
    15.90963  2945.83181   0.
    44.30452  2933.27820   0.
    -0.12722  2955.42655   0.
    24.47411  2943.04615   0.
     4.45051  2952.86019   0.
    40.01017  2935.22543   0.
    52.75593  2931.58993   0.
    13.75183  2934.27842   0.
    32.31862  2938.44653   0.
     0.40990  2931.04902   0.
    19.20708  2946.27332   0.
    57.19103  2930.55709   0.
    -0.97178  2947.27328   0.
    19.39705  2939.49643   0.
    11.08068  2950.12444   0.
    32.86215  2930.47012   0.
     7.41320  2941.82707   0.
    13.76382  2948.77946   0.
    27.17579  2942.79365   0.
     7.27112  2952.68663   0.
     2.71547  2954.94653   0.
    22.91159  2945.17994   0.
     2.00816  2941.86911   0.
    24.73355  2934.79062   0.
    47.86753  2934.00196   0.
    50.62083  2933.29089   0.
    60.15732  2930.28185   0.
    37.65425  2937.53830   0.
    44.64836  2929.77041   0.
    10.93416  2939.02064   0.
     4.26476  2949.76242   0.
    36.78915  2931.78219   0.
     7.36345  2946.13476   0.
    30.92470  2941.06806   0.
     6.19921  2931.10091   0.
    35.16618  2938.51604   0.
    16.36294  2929.87801   0.
    13.43632  2943.77014   0.
    42.64967  2935.50406   0.
    26.89596  2931.23775   0.
     1.59760  2936.73753   0.
    17.19200  2948.13905   0.
    -0.61497  2957.60981   0.
    26.49360  2937.36117   0.
     9.56799  2951.50953   0.
    17.55858  2943.77119   0.
    55.26825  2932.33039   0.
    22.03247  2936.46128   0.
    16.10828  2937.24515   0.
    22.48452  2941.40733   0.
    20.86327  2946.43955   0.
    29.71126  2937.35408   0.
    32.14062  2935.59882   0.
    45.26358  2935.44707   0.
    29.19256  2942.39482   0.
    25.22337  2944.48902   0.
    25.77440  2940.40763   0.
     5.12787  2951.33100   0.
     9.72036  2943.07255   0.
     0.63027  2944.64860   0.
     5.15669  2954.13690   0.
    33.80274  2940.56791   0.
     1.57076  2956.41210   0.
     9.31000  2947.97928   0.
     9.87726  2933.53233   0.
    53.60824  2932.85261   0.
    40.63972  2936.89193   0.
    13.47285  2946.23828   0.
    37.68088  2934.75035   0.
    46.32767  2931.88185   0.
    18.64740  2941.16071   0.
    13.09413  2950.32980   0.
    18.01744  2935.92389   0.
     0.55332  2948.73049   0.
     5.35766  2947.55011   0.
    42.44669  2933.52960   0.
    57.75733  2932.24094   0.
    23.68300  2931.83870   0.
    19.94397  2947.74183   0.
    61.81887  2931.15328   0.
[...]
POINT_DATA      1414
CELL_DATA      2568
SCALARS Resistivity(ohm.m) double 1
LOOKUP_TABLE default
          1082.38001          1654.49918          2200.62100          1040.65533           467.42740          2120.72557          1377.00462          1632.99974          1579.01276          2002.08131           751.70016          2031.34072           586.62510          2457.71359          2444.80130          2006.40733          1471.77819           384.50119           516.32943          2314.75344          1267.65671          1938.56906          1147.62441           553.65335          1824.01453           535.93389           236.31134          2099.50907          2397.44497          2173.85652           510.52695           514.81788          1565.23865           358.44108           390.35647          1797.90173           721.65901           918.51434          1101.79812          1642.78031          1818.67196           666.32583           570.26442          2545.52833           405.16143           370.84558          3047.06741           800.00281           604.30830           952.27866          2599.96217          1839.76091          1007.90519          1477.76367          2371.28646           884.38549           422.83014          2118.91293           487.87611          1078.70339           485.21967          2225.40408           379.46758          1930.66231           260.07989          1458.18325          2053.76308          1931.48120           319.99657           768.76491           484.64501           781.02809          2161.97255           475.88828           287.58023          3136.72802          1354.59866           391.23115           279.71958          2884.86724          2703.26468          1566.78637           492.63460           388.85154          2103.61296           816.72311           395.74733          2236.86292           876.54619          1811.30083          1010.86414           449.27122          2122.45484           323.54180          1898.46659          2065.57258           506.24957          1213.05789          2321.78397           963.10423          1453.65701           495.64625           601.59192           686.47260          1186.34437          1633.64612           464.79051           922.86157          2278.42546          1301.60449           348.75701          1182.65294          2792.11297          1739.31056          2130.14625          1161.57129          1082.85785          1391.90164           555.37579           361.38059          2235.33350          1301.58663          3124.42694           686.63917           477.40365          2018.47565          2669.74967          3292.16182          1824.64516          1537.50956          1966.72419          1021.59313          1092.27471          2359.29985           788.40884          3093.05450           340.65665          1587.56382           965.72817          1217.76522          1492.26966           476.39596           596.13300          1441.91105          1557.07517           527.04557           495.15245          1365.55069          1908.38611           596.44479          2228.52477          1935.50808           897.66112           674.14917          2275.77528           256.89239          1731.16361           357.64749          2411.65681          1137.90912          1175.30191           493.51895          2549.19219           461.85873          2089.30509           505.25907          1538.47523          1964.50156          1958.17948          1647.33413           695.89593           725.32062           663.00210           283.64262           494.39147           938.81748           816.08005          3576.06957          2936.30834          1097.45163          2198.56053          1506.83604          1909.78755           698.19242           489.48512           931.84665           858.34428           650.01321           860.79956          2668.47522          1081.11741          2569.11109           661.43490          2783.21669           279.64337           590.62550          2690.95914          1971.84216          1150.97522           522.14613           244.55769           817.29702          1765.43612          1311.03452          1940.26511           991.05756          3819.90892          2323.12660           496.07942          2181.07655          1182.28860           555.87120           515.09016           375.29789           584.06904          1104.82666          2551.02899           460.23546          1175.83417           537.59824           879.15598          1304.79948          1065.03037           367.57655           582.63553           706.14168           331.21038           629.96597          1139.00612           355.91995          1082.77722          2167.39718          1303.07722          3214.50336          2358.39612          1745.61557          2436.54551          1498.62110          1378.48397          1251.08361          2772.30190           608.19119           927.54729           501.28669          2573.56739           245.04104          1771.41260           466.13615           384.83651          2041.12644           229.59496          2121.60108          1758.46021           707.71084          1935.70977           934.11668           626.26397           725.34731           642.63773          3185.78138           548.67540          2104.75923           435.05484           543.39672           490.25754          1673.57352           407.05599          2148.85111           887.58226          2318.44443          1009.84199          2131.06482          2677.39349          2138.13737           413.21118          1516.38443          2220.01747           387.47607           680.72791           633.66414           384.90686          1244.82396           273.19940           894.69151           896.29899          2194.52944           561.73512          2363.91359           570.72981           417.87274           945.52562           300.50149          2365.52961           722.98076          1884.35041          2192.81564          1389.56914           520.40070           543.97809           668.29430          1037.93834           499.92641          2488.67722          2771.04505           367.22830          1806.16185          1172.75902          1407.34132          1996.15837           339.41541           732.43086           553.30452           329.90777          2170.08611           758.88174           340.32012           454.76929          1201.69766          3068.30207           435.66889          3410.46528           448.99808          1055.84916           395.63458           581.09053          1084.49637           479.33387          1251.03405           986.10045          3036.43536          1676.05403          2055.90142           611.81683          1589.54644           400.52085           481.13900           635.05653           543.30860          3300.81474           598.35889          2169.60356           366.37662          2023.33829           423.78476           547.19400          1767.36308          1168.40367          1307.40526           478.36903          2125.24354           398.55162          2664.84989           775.65978           356.89427           542.64076          2069.78442           484.10074          1557.96906           375.55179           488.25502           812.54440          1394.15239           871.23016           617.90918          1209.90506           586.21238           357.95811          2227.77616          1768.79663          2939.35174           375.12089          1155.93887          1278.45212          1034.42701           311.16767          2857.25988           472.21151           425.25863           384.20784          2026.07371          1233.62073           373.92129          1749.84445          2460.27211           224.68958          1200.22733           514.92426          1398.47342           518.96963          1531.83016           754.77052           404.09882          1290.67148          1443.18796           382.60815           783.28091           657.64552          1452.57426          1662.99685          1015.93143           521.84633           701.44194          1248.66503          1306.22440          1226.87932           831.14214           577.70597           905.35730          2154.76194          1582.77214          1460.31504          2250.79079          1020.22279           564.75083          1176.19767          2434.44787           657.21734           930.04371           649.95232          1720.29814           976.11117           472.34772          2189.37869          1429.04659          1224.65775           301.76109          1772.39727           518.77697          1263.10001           447.04348          1261.77369           425.27306           377.25726          2071.94311          1007.82173          1347.36414          1434.25444           611.26476          1910.67748          1395.00784          3530.53041           563.87605          1083.81188          2218.06817          1048.50856          1064.82701          1138.55260          1104.68252          4199.87514           823.70379          3368.71942          1488.44821          1609.52685          1287.45682          1821.31447           783.30270          2298.21042           889.83343          1379.81299           380.43247          1812.44215          1221.17406           858.01689          1409.26123          2052.46310           785.98824           845.67844          1234.64621          1857.19672          1619.29056           823.01972          1730.56003           840.33667           285.02846          1829.58563          3936.52159          1068.81981           486.73199          1565.82132           671.60430          1101.40898          2082.95114           570.93133           505.55204          2021.68673          2813.82821          1319.12138           334.02206           667.23414           732.48661          1170.47171          1173.37412           997.41391          1390.63697           778.71033          1329.32337           738.50987          1027.73715          2816.18886          1730.57343           636.03882           306.86716           544.22567          1239.56293           739.15125          1185.68947          3819.13024          1174.09484           446.40221           543.54278          1315.80705          1154.73642           839.40261           505.35956          3382.09989          1249.65856           460.79227          3539.60082          2276.73828           363.26501          1335.98976          1148.35682          1022.79169          1220.14123          1032.89665           639.34422          1666.58164          1299.85823          1324.95045          1385.94211           691.08292          1812.91299           377.59213          1295.70283           666.07638           370.15111           696.93666          1642.90005          1066.96608           903.46164           374.72867           486.99228          1609.42915          1099.81335          4386.43421          5081.77864          3590.82548          2390.02044          2088.18784          2397.84314          3019.12851          5228.69417           698.22606          4886.43690           422.84533          1039.58043          1359.38137           647.83425          3450.57555          6064.42989          1295.84961           394.19707          2111.58490          2635.59648           756.87787           844.72699          1320.86019          3975.31486          1437.63081          2334.73183          1273.12462           643.58201          1388.89739          1494.04910           573.04801          3383.10200           492.96413          1348.65389          5523.90894          3714.49518          1578.55977          5720.33158           231.40339           794.26223           486.20212          1978.25365          2695.63554          1602.43975          2867.73655          1792.44771          2363.96550           724.34362          1502.66718          1327.93636          1801.72193         10822.67859          3536.06368           903.14096          4267.14664          4346.20646           788.27343           624.06952          5930.37820          2364.06819          3959.01006          5390.33328          1373.46331           799.01941           715.96459           535.70689           818.38552          4102.92688          1498.38642           975.17561          1633.44493           268.68874          1165.48415          1810.55694          4054.70649          1081.25308           941.63255           687.99318           657.40318          1663.43764          1382.63614           885.66265          3334.21146          2789.14436          3309.05653          3578.73291          4951.87949          5059.26842          2439.36273           559.64836          4806.19580          1164.54037          1485.83070           757.82896          1297.53245           839.14301           400.45437          6673.41601          5683.47849          1390.73415          1506.72915          2751.28672          2433.14034          2823.33826          2826.77172           864.50720          1154.72151           555.49428          1021.83432           408.09211           494.82512           800.13249           620.36312          2074.98015          5262.55063          3495.72155          1422.88326          2429.24347          1367.72623          1626.91071          7459.43487          4934.19362          1979.32237           404.87001           639.28799          6176.84864           679.63019          3563.32366          4564.43232          1110.62955          2366.71027           626.30567          1141.97515          1092.89743          2426.91562          2414.21639          2748.68455           546.23168           543.97893          1270.05199           290.75546           579.38631           421.98001          3420.82335          5580.40926           576.55384          2635.35386           889.94878          2262.84222          1158.01131           832.97924           596.81721           657.45785           545.65817          1996.58253           727.07448          1462.02419           658.62236          1986.54089          1859.53518          5209.00132          2137.88361           568.22708           567.77455           266.80438          3258.49868           690.20506           694.33442          1228.14067          2698.59417           982.89980           804.65405           492.45320          1242.39101          1063.36469          1691.55237          1334.29720           517.57471           675.73460           666.29313          2477.64072          2250.37656          1303.28591          7480.52532          1056.90900           836.95545           873.50098          1459.98368          2346.64200          1571.72717          1620.21268          1863.73394          2333.86415           928.45249          8210.82089          1440.04565          2634.40173           774.08079          1305.75554          3926.29920          3098.59207           681.27374          1126.06691          3332.52337           491.17715           505.99116          1211.74553          2446.87168          6257.64867          1377.44910          6521.65250          1313.07542          1691.34424          1446.81108          1155.04761           471.64832           766.43102          2772.96025           674.89646          4431.77595           559.64258          3108.75645           892.06599           693.23245          1628.61411          1864.42267          3009.51282          5788.05884          2335.58309          1311.73676          1574.32912          1220.70848          7046.60534          7201.03224          2031.41764           930.81238          2918.55094           528.23775          1214.00872           815.38361          2487.50884          1207.65166           961.83972           537.66040           512.47062          3537.48444           974.89987           753.91187          6454.33146          4285.13003          2167.33036          1280.23359          8756.17410           766.68384          2703.12271          3584.86094          2111.82500          1109.79751          2715.51256          6240.37921          1595.14845           383.96543           681.66352           822.10195          1713.66161          1544.82623           579.09328           591.78017          7316.81410           686.86558          1373.11895          1687.24671          3675.47886          5522.43949           499.67762          1247.77245           899.65778           991.62432          1752.41492           696.83522           835.66529          1609.86552           793.56351           586.79183           442.59712           886.04604          2981.29757           493.44664          2993.44287          1569.92280          2180.68413          1401.70900          2037.02532          1528.79382           442.82847          4055.85417          1463.60911          1937.83817          1901.31849          2086.60567          5488.96902           931.43428          4663.73531           536.04629           738.14870          1530.94369          1178.09631          7066.28702          2597.13309           841.09735          1484.51998          4239.98005          3534.19293           564.09357          5531.98386          1363.53334          2807.55046           991.56775          3848.49863          4198.12283           477.86058          3542.31668          4391.00691          2432.28104          5315.46576           833.50749           896.98253          1169.68224          2287.97190           538.32470          8646.43634          4584.00097           559.12417          1873.73290          1805.43744          1790.46984           816.19952          1244.74609         14171.75363           789.91307          2465.16437          1241.54720           448.54071           722.19659          2379.28057          5088.66809          6513.58335          1953.49532          2546.88131          2428.70030          4447.20310           721.29523          1314.84065          2076.54782          1865.72400          5231.63430           551.64657          1191.15863          2801.06359           802.66055          3440.67842          2428.44849          5956.13100          2923.94001          1342.09433          1016.78231           520.81991          5184.58217          6483.46096          2401.16357           262.37051           366.54267           877.97657           866.29691          5989.69760          1239.01145          2036.21564          3358.63107          3264.55429          6189.32584          5579.75137           383.46076           579.48140           765.55934          1237.96309           632.22074          4555.45024          4091.66563          1270.95750           894.49091          1168.88836          2488.01151          3982.07572          2636.28409          1977.65925           812.62428          4723.02261          7783.83041           470.89228           593.81443          1715.86154          6999.49119          2527.33230          2824.03974          5062.38033           872.95019          1948.32114          4558.27296           528.46843          1471.07887          1196.02945          5703.70934           929.34600          1794.78733          3044.03499          5169.50360          4989.54245          5372.48338          4683.10391          4181.41922          1664.17243           718.38566          3493.36342         10146.97911           610.46969          2322.77747          2802.16974           233.06729          2413.45280          3479.42692          2479.56287           422.15558          4973.60938           963.70056          3376.61907          4159.28525          1683.06092           839.40643          2758.76431          4211.85426          5543.69412          6087.60534          4800.36504           615.89311           563.92033          1218.87602          5485.84775          1214.70971          2640.17365           872.44776           677.917