# vtk DataFile Version 3.0
Output from R2
ASCII
DATASET UNSTRUCTURED_GRID
POINTS       1414 double
     0.00000  2968.10000   0.
     1.54000  2966.60000   0.
     3.08000  2964.90000   0.
     4.61000  2964.10000   0.
     6.15000  2963.30000   0.
     7.69000  2962.60000   0.
     9.23000  2961.50000   0.
    10.76000  2960.70000   0.
    12.30000  2960.00000   0.
    13.84000  2959.30000   0.
    15.38000  2958.70000   0.
    16.91000  2958.10000   0.
    18.45000  2957.30000   0.
    19.99000  2956.60000   0.
    21.52000  2955.80000   0.
    23.06000  2955.00000   0.
    24.60000  2954.30000   0.
    26.14000  2953.50000   0.
    27.68000  2952.80000   0.
    29.21000  2951.90000   0.
    30.75000  2951.10000   0.
    32.29000  2950.20000   0.
    33.83000  2949.50000   0.
    35.36000  2948.70000   0.
    36.90000  2948.10000   0.
    38.44000  2947.30000   0.
    39.98000  2946.70000   0.
    41.51000  2946.10000   0.
    43.05000  2945.50000   0.
    44.59000  2945.10000   0.
    46.13000  2944.50000   0.
    47.66000  2944.10000   0.
    49.20000  2943.60000   0.
    50.74000  2943.40000   0.
    52.28000  2943.00000   0.
    53.81000  2942.50000   0.
    55.35000  2942.10000   0.
    56.89000  2941.60000   0.
    58.43000  2941.00000   0.
    59.96000  2940.60000   0.
    61.50000  2940.10000   0.
    63.04000  2939.50000   0.
    64.58000  2939.10000   0.
    66.11000  2939.20000   0.
    67.65000  2939.20000   0.
    69.19000  2939.10000   0.
    70.73000  2938.90000   0.
    72.26000  2938.60000   0.
    73.80000  2938.30000   0.
    75.34000  2938.50000   0.
    76.88000  2938.70000   0.
    78.41000  2938.60000   0.
    79.95000  2938.80000   0.
    81.49000  2938.90000   0.
    83.03000  2939.10000   0.
    84.56000  2939.10000   0.
     3.42000  2957.55000   0.
     8.97000  2954.51000   0.
    14.52000  2951.86000   0.
    20.07000  2949.38000   0.
    25.63000  2946.59000   0.
    31.18000  2943.67000   0.
    36.73000  2940.99000   0.
    42.28000  2938.62000   0.
    47.83000  2936.87000   0.
    53.39000  2935.46000   0.
    58.94000  2933.69000   0.
    64.49000  2931.95000   0.
    70.04000  2931.81000   0.
    75.60000  2931.36000   0.
    81.15000  2931.70000   0.
     0.51333  2967.60000   0.
     1.02667  2967.10000   0.
     2.05333  2966.03333   0.
     2.56667  2965.46667   0.
     3.59000  2964.63333   0.
     4.10000  2964.36667   0.
     5.12333  2963.83333   0.
     5.63667  2963.56667   0.
     6.66333  2963.06667   0.
     7.17667  2962.83333   0.
     8.20333  2962.23333   0.
     8.71667  2961.86667   0.
     9.74000  2961.23333   0.
    10.25000  2960.96667   0.
    11.27333  2960.46667   0.
    11.78667  2960.23333   0.
    12.81333  2959.76667   0.
    13.32667  2959.53333   0.
    14.35333  2959.10000   0.
    14.86667  2958.90000   0.
    15.89000  2958.50000   0.
    16.40000  2958.30000   0.
    17.42333  2957.83333   0.
    17.93667  2957.56667   0.
    18.96333  2957.06667   0.
    19.47667  2956.83333   0.
    20.50000  2956.33333   0.
    21.01000  2956.06667   0.
    22.03333  2955.53333   0.
    22.54667  2955.26667   0.
    23.57333  2954.76667   0.
    24.08667  2954.53333   0.
    25.11333  2954.03333   0.
    25.62667  2953.76667   0.
    26.65333  2953.26667   0.
    27.16667  2953.03333   0.
    28.19000  2952.50000   0.
    28.70000  2952.20000   0.
    29.72333  2951.63333   0.
    30.23667  2951.36667   0.
    31.26333  2950.80000   0.
    31.77667  2950.50000   0.
    32.80333  2949.96667   0.
    33.31667  2949.73333   0.
    34.34000  2949.23333   0.
    34.85000  2948.96667   0.
    35.87333  2948.50000   0.
    36.38667  2948.30000   0.
    37.41333  2947.83333   0.
    37.92667  2947.56667   0.
    38.95333  2947.10000   0.
    39.46667  2946.90000   0.
    40.49000  2946.50000   0.
    41.00000  2946.30000   0.
    42.02333  2945.90000   0.
    42.53667  2945.70000   0.
    43.56333  2945.36667   0.
    44.07667  2945.23333   0.
    45.10333  2944.90000   0.
    45.61667  2944.70000   0.
    46.64000  2944.36667   0.
    47.15000  2944.23333   0.
    48.17333  2943.93333   0.
    48.68667  2943.76667   0.
    49.71333  2943.53333   0.
    50.22667  2943.46667   0.
    51.25333  2943.26667   0.
    51.76667  2943.13333   0.
    52.79000  2942.83333   0.
    53.30000  2942.66667   0.
    54.32333  2942.36667   0.
    54.83667  2942.23333   0.
    55.86333  2941.93333   0.
    56.37667  2941.76667   0.
    57.40333  2941.40000   0.
    57.91667  2941.20000   0.
    58.94000  2940.86667   0.
    59.45000  2940.73333   0.
    60.47333  2940.43333   0.
    60.98667  2940.26667   0.
    62.01333  2939.90000   0.
    62.52667  2939.70000   0.
    63.55333  2939.36667   0.
    64.06667  2939.23333   0.
    65.34500  2939.15000   0.
    66.88000  2939.20000   0.
    68.42000  2939.15000   0.
    69.70333  2939.03333   0.
    70.21667  2938.96667   0.
    71.24000  2938.80000   0.
    71.75000  2938.70000   0.
    72.77333  2938.50000   0.
    73.28667  2938.40000   0.
    74.31333  2938.36667   0.
    74.82667  2938.43333   0.
    75.85333  2938.56667   0.
    76.36667  2938.63333   0.
    77.64500  2938.65000   0.
    78.92333  2938.66667   0.
    79.43667  2938.73333   0.
    80.72000  2938.85000   0.
    82.00333  2938.96667   0.
    82.51667  2939.03333   0.
    83.79500  2939.10000   0.
     0.08400  2959.57200   0.
     1.19600  2958.89800   0.
     2.30800  2958.22400   0.
     4.53000  2956.94200   0.
     5.64000  2956.33400   0.
     6.75000  2955.72600   0.
     7.86000  2955.11800   0.
    10.35750  2953.84750   0.
    11.74500  2953.18500   0.
    13.13250  2952.52250   0.
    15.90750  2951.24000   0.
    17.29500  2950.62000   0.
    18.68250  2950.00000   0.
    21.18200  2948.82200   0.
    22.29400  2948.26400   0.
    23.40600  2947.70600   0.
    24.51800  2947.14800   0.
    26.74000  2946.00600   0.
    27.85000  2945.42200   0.
    28.96000  2944.83800   0.
    30.07000  2944.25400   0.
    32.56750  2943.00000   0.
    33.95500  2942.33000   0.
    35.34250  2941.66000   0.
    38.11750  2940.39750   0.
    39.50500  2939.80500   0.
    40.89250  2939.21250   0.
    43.66750  2938.18250   0.
    45.05500  2937.74500   0.
    46.44250  2937.30750   0.
    49.22000  2936.51750   0.
    50.61000  2936.16500   0.
    52.00000  2935.81250   0.
    54.77750  2935.01750   0.
    56.16500  2934.57500   0.
    57.55250  2934.13250   0.
    60.32750  2933.25500   0.
    61.71500  2932.82000   0.
    63.10250  2932.38500   0.
    65.87750  2931.91500   0.
    67.26500  2931.88000   0.
    68.65250  2931.84500   0.
    71.43000  2931.69750   0.
    72.82000  2931.58500   0.
    74.21000  2931.47250   0.
    76.98750  2931.44500   0.
    78.37500  2931.53000   0.
    79.76250  2931.61500   0.
    82.53750  2931.75500   0.
    83.92500  2931.81000   0.
     6.60134  2937.05984   0.
    20.80435  2932.52560   0.
     3.78758  2946.36592   0.
    15.48523  2940.98228   0.
    29.30091  2934.50364   0.
    23.90594  2939.46561   0.
    40.87322  2931.62711   0.
     1.03219  2951.87344   0.
    10.83406  2946.32292   0.
    20.42668  2943.42459   0.
    48.80952  2930.83467   0.
    35.50309  2935.49258   0.
     7.54365  2949.73854   0.
    28.57967  2939.84283   0.
    15.90963  2945.83181   0.
    44.30452  2933.27820   0.
    -0.12722  2955.42655   0.
    24.47411  2943.04615   0.
     4.45051  2952.86019   0.
    40.01017  2935.22543   0.
    52.75593  2931.58993   0.
    13.75183  2934.27842   0.
    32.31862  2938.44653   0.
     0.40990  2931.04902   0.
    19.20708  2946.27332   0.
    57.19103  2930.55709   0.
    -0.97178  2947.27328   0.
    19.39705  2939.49643   0.
    11.08068  2950.12444   0.
    32.86215  2930.47012   0.
     7.41320  2941.82707   0.
    13.76382  2948.77946   0.
    27.17579  2942.79365   0.
     7.27112  2952.68663   0.
     2.71547  2954.94653   0.
    22.91159  2945.17994   0.
     2.00816  2941.86911   0.
    24.73355  2934.79062   0.
    47.86753  2934.00196   0.
    50.62083  2933.29089   0.
    60.15732  2930.28185   0.
    37.65425  2937.53830   0.
    44.64836  2929.77041   0.
    10.93416  2939.02064   0.
     4.26476  2949.76242   0.
    36.78915  2931.78219   0.
     7.36345  2946.13476   0.
    30.92470  2941.06806   0.
     6.19921  2931.10091   0.
    35.16618  2938.51604   0.
    16.36294  2929.87801   0.
    13.43632  2943.77014   0.
    42.64967  2935.50406   0.
    26.89596  2931.23775   0.
     1.59760  2936.73753   0.
    17.19200  2948.13905   0.
    -0.61497  2957.60981   0.
    26.49360  2937.36117   0.
     9.56799  2951.50953   0.
    17.55858  2943.77119   0.
    55.26825  2932.33039   0.
    22.03247  2936.46128   0.
    16.10828  2937.24515   0.
    22.48452  2941.40733   0.
    20.86327  2946.43955   0.
    29.71126  2937.35408   0.
    32.14062  2935.59882   0.
    45.26358  2935.44707   0.
    29.19256  2942.39482   0.
    25.22337  2944.48902   0.
    25.77440  2940.40763   0.
     5.12787  2951.33100   0.
     9.72036  2943.07255   0.
     0.63027  2944.64860   0.
     5.15669  2954.13690   0.
    33.80274  2940.56791   0.
     1.57076  2956.41210   0.
     9.31000  2947.97928   0.
     9.87726  2933.53233   0.
    53.60824  2932.85261   0.
    40.63972  2936.89193   0.
    13.47285  2946.23828   0.
    37.68088  2934.75035   0.
    46.32767  2931.88185   0.
    18.64740  2941.16071   0.
    13.09413  2950.32980   0.
    18.01744  2935.92389   0.
     0.55332  2948.73049   0.
     5.35766  2947.55011   0.
    42.44669  2933.52960   0.
    57.75733  2932.24094   0.
    23.68300  2931.83870   0.
    19.94397  2947.74183   0.
    61.81887  2931.15328   0.
[...]
POINT_DATA      1414
CELL_DATA      2568
SCALARS Resistivity(ohm.m) double 1
LOOKUP_TABLE default
          1032.08355          1592.46882          2379.64866          1001.03944           571.76326          2198.48916          1228.63537          1431.58264          1599.22347          2025.86905           769.00916          2022.99952           622.35632          2259.42136          2250.69634          1907.11109          1443.35693           436.51033           497.12583          2250.82509          1143.72738          1843.53648          1126.23610           629.29169          1753.15782           506.90687           254.72253          2142.38081          2270.63678          2375.82678           518.68960           510.92871          1509.89505           387.41730           342.90657          1720.39770           718.55054           898.08185          1093.79489          1546.49404          1801.42964           693.51894           444.56709          2361.18797           321.25582           407.15108          2875.13205           810.12764           634.66386           900.59366          2449.56033          1768.61851           950.17186          1465.06600          2533.56052           866.96887           338.32454          2284.94854           473.98973          1000.87678           591.72033          2077.67703           431.40083          1799.37623           258.98701          1496.53859          2021.57237          1926.61135           276.80034           683.77102           480.34185           766.23194          2038.28083           374.09517           307.36223          2999.11239          1251.77083           435.58522           334.93667          2687.54920          2516.22568          1351.51100           451.53758           417.82140          1982.39740           744.78876           317.88211          2141.29837           840.01883          1758.29468           967.61213           348.19946          2250.94979           351.65072          1904.57524          1953.84300           543.98364          1095.99162          2153.20610           931.47715          1370.81565           584.21339           651.79878           720.65691          1004.22031          1624.38468           556.00093           895.76762          2381.14941          1160.52527           368.43030          1053.20652          2605.50493          1646.23877          2032.01288          1216.73231           981.06103          1363.96128           445.22217           300.61708          2217.80859          1222.08899          2971.34218           735.13969           511.46878          1960.33485          2493.42127          3199.36241          1700.73354          1357.85168          1964.19310           992.59625          1112.08450          2187.96915           809.31064          2954.56339           368.90760          1565.99719           931.92560          1269.14550          1433.79119           557.39274           631.17079          1263.42456          1512.28598           599.95134           482.20419          1300.17823          1829.98098           560.13985          2431.18608          1850.66779           884.16685           683.96722          2185.35698           281.96751          1519.03252           390.72825          2253.23728          1153.18541          1063.25094           547.52866          2429.09672           500.77760          2222.74175           604.33675          1395.45422          1865.58230          1917.47710          1597.58852           709.09985           765.82104           698.29306           262.11705           428.07549           881.07636           767.08873          3579.58066          2777.24284          1023.32413          2166.03347          1292.27656          1873.89900           733.83278           590.86378           899.52536           815.58178           648.68293           830.25829          2445.88961          1090.52243          2355.03175           577.26372          2566.77140           261.99956           505.19680          2481.55489          1992.47592          1088.85053           421.03574           285.08963           793.71859          1644.48676          1300.39517          1805.59065           956.05643          3881.43144          2501.55320           392.60650          2350.49922          1164.07803           628.80707           434.70815           316.20520           609.19601          1056.83859          2347.32956           475.03289          1097.56478           540.74282           838.17939          1171.70763          1004.63726           323.29353           661.43630           615.42655           382.80556           530.97175          1206.82880           325.29349           976.42161          2192.81183          1237.77398          3108.81694          2243.50510          1539.50788          2287.18349          1290.62608          1229.81257          1200.56733          2550.80113           665.60137           891.39525           385.70615          2366.37960           260.75384          1712.68689           520.23814           430.85024          2117.13938           254.72522          2107.14207          1580.20067           660.37230          1882.90861           911.34265           639.23655           696.78736           706.80410          3084.65604           616.49853          2235.35162           472.83631           416.32231           477.12679          1480.75453           335.88764          2266.63308           843.34741          2516.95047           929.89363          2174.27006          2532.78861          2127.12279           441.86383          1441.89466          2359.62653           435.90157           685.15928           651.62343           442.23727          1264.28530           267.98934           883.76723           866.70464          2333.20312           471.39533          2265.25259           646.46120           465.26215           882.85634           292.74425          2206.63585           616.78004          1820.71421          2193.69532          1256.31221           557.30395           418.44668           632.58655           957.60668           469.48494          2348.56540          2561.85559           390.85482          1755.58762          1172.41826          1362.78165          1925.77627           380.37879           655.64052           616.99674           282.28935          2233.27297           758.77184           316.30511           532.29240          1058.43580          2956.06398           452.70716          3357.84073           402.67276           921.19894           450.81469           544.24357          1071.24446           490.90265          1284.96249           954.99960          2862.86330          1608.38425          2103.63890           483.63815          1406.94373           347.72651           408.12917           582.19939           629.95800          3214.41867           588.19098          2059.41970           403.32066          2029.83391           446.01907           596.62332          1712.39134          1071.86112          1083.25691           487.29054          2080.98603           440.37008          2448.50136           744.79092           353.18341           473.07274          1979.94294           524.64587          1401.75648           307.01375           378.26284           794.47016          1405.91047           857.20449           488.51120          1210.63664           459.62904           338.60967          2238.28650          1619.50529          2803.08702           430.40316          1181.68986          1247.15545           943.50970           288.23275          2649.11689           418.33779           462.40838           413.61256          1928.78930          1200.30402           417.93095          1724.03930          2283.55491           265.12694          1215.77953           611.48490          1215.08668           456.30740          1341.94439           654.46139           331.36467          1299.28156          1308.62275           424.84903           783.49198           529.26356          1249.29388          1620.53453           947.90593           611.58601           581.46643          1179.75356          1364.78146          1152.66493           824.41579           532.91175           877.40389          2205.32375          1467.07359          1323.65374          2104.48535           943.59175           635.94389          1061.15316          2325.97060           667.74452           843.33993           701.69764          1580.90415           918.73038           381.56907          2097.88360          1258.73190          1130.80974           272.60215          1594.54241           611.26005          1249.44549           475.11162          1168.16120           462.29160           418.25643          2104.24845           962.38942          1300.00701          1317.41041           651.10931          1841.32652          1208.52235          3532.93042           625.54002          1051.90880          2327.41694          1029.13238           998.12346          1183.92760          1075.60755          4273.99336           806.96217          3307.81706          1382.48803          1386.88417          1123.19585          1638.13109           803.61093          2145.06205           857.46942          1211.88626           421.45022          1753.21710          1168.54312           827.28297          1210.68312          2138.17663           797.91668           826.42595          1084.92814          1730.57091          1480.54872           802.32021          1669.32331           846.21553           278.65243          1778.41401          3983.91571           979.07348           450.73427          1361.05506           725.74478          1011.61255          2064.29274           512.42022           528.44141          2083.83739          2631.40080          1145.92550           341.00107           672.09777           770.37097          1131.88108          1048.49147           970.56100          1420.49010           765.42168          1369.05434           745.42932           978.08938          2687.22641          1669.24050           664.63989           312.40705           623.71272          1131.56628           758.40787          1091.21221          3823.43450          1114.62106           355.61969           493.21895          1149.27878          1075.93077           845.25912           386.91023          3312.92184          1314.08665           358.91878          3496.87366          2161.57861           409.19388          1224.63458          1105.96879           981.97346          1085.25826           986.21370           518.99870          1460.50019          1330.11533          1341.87483          1192.48669           685.56538          1636.08101           436.48141          1125.14601           541.69544           418.37115           709.71757          1545.39779          1010.20629           865.33547           431.21351           373.09721          1528.51636          1038.13601          4333.70067          4990.04483          3563.32425          2150.01957          2053.04080          2428.69097          3516.32109          5213.33808           616.41638          4520.58628           467.94999          1021.85426          1241.05153           665.86734          3890.56583          5886.68629          1236.67911           408.35178          1985.56399          2649.14147           719.17213           837.22087          1358.08779          4211.81919          1325.14084          2332.16271          1265.42587           630.73153          1333.70217          1677.16507           447.27893          3327.99244           527.39382          1401.52093          5351.90416          3886.14909          1604.86346          5717.31072           301.73184           822.97792           511.37732          1890.00940          2599.48794          1622.45835          3208.00081          1834.25701          2474.46696           732.96152          1378.03622          1242.90538          1871.69982          8484.43030          3623.33386           949.28194          4568.41603          4317.04160           865.38797           644.04704          5708.93042          2572.53515          4217.64308          5438.00050          1528.66759           804.11021           702.94948           499.00058           779.20619          4469.69808          1513.19944           949.41310          1663.98717           344.80792          1028.51814          1767.78761          4009.85111          1007.07429          1015.37508           681.88990           775.68956          1565.68473          1519.82761           832.52235          3286.98284          2701.60231          3220.57580          3373.32730          5377.91397          4601.93421          2595.11430           560.46242          4544.38375          1137.84896          1481.62420           645.93422          1385.14349           939.11361           402.09849          6682.32184          5166.55668          1411.24863          1624.76863          2718.03472          2219.75751          2889.91004          3066.45822           851.51403          1168.93284           583.21593          1028.42674           388.15865           529.98217           799.80896           589.95105          2066.37618          4778.81581          3686.82984          1389.92420          2508.18514          1398.09601          1614.29905          7380.05265          5065.30185          1963.40130           401.32629           568.14264          6042.99017           676.81861          3666.66684          4270.65291           997.46438          2502.29182           682.19751          1136.63929          1000.58829          2398.86407          2445.65251          2597.89186           635.78122           503.16940          1114.13481           363.45638           591.23214           403.38857          3473.99486          5469.41228           464.49651          2764.54434           839.86735          2436.07492          1147.83419           862.14385           643.72395           695.76596           609.02413          2151.10396           762.13469          1400.28624           702.14746          2358.10553          2023.16382          4467.62502          2508.58001           667.37941           578.95600           342.57842          3085.65258           693.20164           724.29655          1243.70528          2480.49005           914.07905           755.20768           507.36770          1201.95736          1142.46660          1667.04328          1284.15467           594.36639           768.45449           665.32222          2508.53910          2244.48045          1249.58045          7327.34866           985.86685           832.39320           874.31312          1471.78325          2600.81822          1528.11773          1547.46009          1515.40376          2586.25276           810.41713          7647.70471          1579.43411          2603.90370           767.65658          1129.90026          3925.90179          3245.98539           738.38584          1045.66063          3347.67390           467.94894           474.15034          1193.35702          2653.05405          5983.34193          1442.07472          6626.71115          1298.44001          1692.75463          1464.09376          1120.06919           461.21792           738.82226          2744.32119           675.99213          4549.68077           640.72281          3140.09322           788.49095           810.16299          1446.36588          2051.60592          2932.50301          4800.24073          2504.31948          1408.39355          1576.41944          1159.49072          7088.81257          7027.00430          2241.25217           952.45826          2674.49088           596.38825          1081.57118           843.95416          2643.54939          1091.71633           998.67321           573.49897           597.27066          3420.35428           979.97133           716.70653          6198.33577          4461.45554          2396.91282          1376.57280          8615.59646           780.99943          2549.84107          3418.99617          2031.96662          1098.97371          2966.85797          5875.89320          1777.85777           404.66355           664.90930           841.63689          1818.21279          1572.73633           632.51656           679.73586          7036.53185           755.88309          1292.65259          1750.50562          3845.55093          5311.47258           450.57170          1333.11024           827.01921          1056.82097          1901.71675           703.90276           798.63813          1551.46027           794.29922           631.23193           399.27120           788.01311          2894.03998           523.65984          2861.90547          1705.08634          2326.62978          1316.82839          1845.55752          1593.51993           408.16644          3951.56279          1415.76662          2156.84598          1872.61782          2233.31014          5316.42983           921.63612          5036.45476           507.26514           727.38011          1430.18722          1096.75171          7021.04845          2489.76599           823.67506          1548.45756          4510.23325          3528.41345           599.25200          5206.11940          1426.48274          2874.46068          1027.84248          3815.58073          3709.02329           522.04352          3364.10193          4200.37333          2635.36841          5176.05609           799.98637           764.18889          1089.39358          2437.99873           447.93020          8652.32507          4625.05393           618.27728          1725.86491          1586.01082          1846.76981           824.83819          1096.44868         12706.27641           687.79592          2271.10534          1308.17927           465.13608           775.34622          2387.60026          5201.16851          6613.82754          1870.25106          2509.27566          2438.68846          4580.47592           722.69082          1384.87410          2136.78290          1877.77845          5180.94909           595.00319          1090.94991          2770.60759           776.37390          3626.11260          2336.38169          6277.29057          2953.27378          1516.72717          1082.82463           600.50445          4996.81487          6706.02440          2464.67124           282.06363           365.62383           804.94389           790.05874          6096.86421          1296.97946          2014.57342          3232.71700          2805.05279          5722.38491          5446.11741           368.33803           536.24423           744.81288          1144.59639           612.88651          4337.73186          4015.45710          1318.65625           914.28346          1009.60774          2613.58149          3585.71610          2375.90004          1898.55185           831.56922          4990.57721          7559.94903           456.72403           652.24261          1926.93021          7142.84435          2145.80073          2944.03700          4851.52973           877.27744          1910.08037          4535.31923           544.96178          1410.09597          1233.87675          5790.62863           861.37246          1866.59234          3309.26768          5439.55811          4823.06326          5670.12755          4535.23092          4258.28815          1798.63767           839.15934          3665.92758          9852.21760           653.38530          2325.50554          2771.80959           282.19233          2501.32956          3466.98395          2551.35756           427.64948          4589.21835           812.63866          3412.60914          4170.63901          1698.40134           744.62523          2804.48965          3815.75545          5257.17727          6088.57460          5129.10704           624.37941           645.90887          1201.21951          5264.73813          1151.62010          2785.11563           863.58439           699.992