# vtk DataFile Version 3.0
Output from R2
ASCII
DATASET UNSTRUCTURED_GRID
POINTS       1414 double
     0.00000  2968.10000   0.
     1.54000  2966.60000   0.
     3.08000  2964.90000   0.
     4.61000  2964.10000   0.
     6.15000  2963.30000   0.
     7.69000  2962.60000   0.
     9.23000  2961.50000   0.
    10.76000  2960.70000   0.
    12.30000  2960.00000   0.
    13.84000  2959.30000   0.
    15.38000  2958.70000   0.
    16.91000  2958.10000   0.
    18.45000  2957.30000   0.
    19.99000  2956.60000   0.
    21.52000  2955.80000   0.
    23.06000  2955.00000   0.
    24.60000  2954.30000   0.
    26.14000  2953.50000   0.
    27.68000  2952.80000   0.
    29.21000  2951.90000   0.
    30.75000  2951.10000   0.
    32.29000  2950.20000   0.
    33.83000  2949.50000   0.
    35.36000  2948.70000   0.
    36.90000  2948.10000   0.
    38.44000  2947.30000   0.
    39.98000  2946.70000   0.
    41.51000  2946.10000   0.
    43.05000  2945.50000   0.
    44.59000  2945.10000   0.
    46.13000  2944.50000   0.
    47.66000  2944.10000   0.
    49.20000  2943.60000   0.
    50.74000  2943.40000   0.
    52.28000  2943.00000   0.
    53.81000  2942.50000   0.
    55.35000  2942.10000   0.
    56.89000  2941.60000   0.
    58.43000  2941.00000   0.
    59.96000  2940.60000   0.
    61.50000  2940.10000   0.
    63.04000  2939.50000   0.
    64.58000  2939.10000   0.
    66.11000  2939.20000   0.
    67.65000  2939.20000   0.
    69.19000  2939.10000   0.
    70.73000  2938.90000   0.
    72.26000  2938.60000   0.
    73.80000  2938.30000   0.
    75.34000  2938.50000   0.
    76.88000  2938.70000   0.
    78.41000  2938.60000   0.
    79.95000  2938.80000   0.
    81.49000  2938.90000   0.
    83.03000  2939.10000   0.
    84.56000  2939.10000   0.
     3.42000  2957.55000   0.
     8.97000  2954.51000   0.
    14.52000  2951.86000   0.
    20.07000  2949.38000   0.
    25.63000  2946.59000   0.
    31.18000  2943.67000   0.
    36.73000  2940.99000   0.
    42.28000  2938.62000   0.
    47.83000  2936.87000   0.
    53.39000  2935.46000   0.
    58.94000  2933.69000   0.
    64.49000  2931.95000   0.
    70.04000  2931.81000   0.
    75.60000  2931.36000   0.
    81.15000  2931.70000   0.
     0.51333  2967.60000   0.
     1.02667  2967.10000   0.
     2.05333  2966.03333   0.
     2.56667  2965.46667   0.
     3.59000  2964.63333   0.
     4.10000  2964.36667   0.
     5.12333  2963.83333   0.
     5.63667  2963.56667   0.
     6.66333  2963.06667   0.
     7.17667  2962.83333   0.
     8.20333  2962.23333   0.
     8.71667  2961.86667   0.
     9.74000  2961.23333   0.
    10.25000  2960.96667   0.
    11.27333  2960.46667   0.
    11.78667  2960.23333   0.
    12.81333  2959.76667   0.
    13.32667  2959.53333   0.
    14.35333  2959.10000   0.
    14.86667  2958.90000   0.
    15.89000  2958.50000   0.
    16.40000  2958.30000   0.
    17.42333  2957.83333   0.
    17.93667  2957.56667   0.
    18.96333  2957.06667   0.
    19.47667  2956.83333   0.
    20.50000  2956.33333   0.
    21.01000  2956.06667   0.
    22.03333  2955.53333   0.
    22.54667  2955.26667   0.
    23.57333  2954.76667   0.
    24.08667  2954.53333   0.
    25.11333  2954.03333   0.
    25.62667  2953.76667   0.
    26.65333  2953.26667   0.
    27.16667  2953.03333   0.
    28.19000  2952.50000   0.
    28.70000  2952.20000   0.
    29.72333  2951.63333   0.
    30.23667  2951.36667   0.
    31.26333  2950.80000   0.
    31.77667  2950.50000   0.
    32.80333  2949.96667   0.
    33.31667  2949.73333   0.
    34.34000  2949.23333   0.
    34.85000  2948.96667   0.
    35.87333  2948.50000   0.
    36.38667  2948.30000   0.
    37.41333  2947.83333   0.
    37.92667  2947.56667   0.
    38.95333  2947.10000   0.
    39.46667  2946.90000   0.
    40.49000  2946.50000   0.
    41.00000  2946.30000   0.
    42.02333  2945.90000   0.
    42.53667  2945.70000   0.
    43.56333  2945.36667   0.
    44.07667  2945.23333   0.
    45.10333  2944.90000   0.
    45.61667  2944.70000   0.
    46.64000  2944.36667   0.
    47.15000  2944.23333   0.
    48.17333  2943.93333   0.
    48.68667  2943.76667   0.
    49.71333  2943.53333   0.
    50.22667  2943.46667   0.
    51.25333  2943.26667   0.
    51.76667  2943.13333   0.
    52.79000  2942.83333   0.
    53.30000  2942.66667   0.
    54.32333  2942.36667   0.
    54.83667  2942.23333   0.
    55.86333  2941.93333   0.
    56.37667  2941.76667   0.
    57.40333  2941.40000   0.
    57.91667  2941.20000   0.
    58.94000  2940.86667   0.
    59.45000  2940.73333   0.
    60.47333  2940.43333   0.
    60.98667  2940.26667   0.
    62.01333  2939.90000   0.
    62.52667  2939.70000   0.
    63.55333  2939.36667   0.
    64.06667  2939.23333   0.
    65.34500  2939.15000   0.
    66.88000  2939.20000   0.
    68.42000  2939.15000   0.
    69.70333  2939.03333   0.
    70.21667  2938.96667   0.
    71.24000  2938.80000   0.
    71.75000  2938.70000   0.
    72.77333  2938.50000   0.
    73.28667  2938.40000   0.
    74.31333  2938.36667   0.
    74.82667  2938.43333   0.
    75.85333  2938.56667   0.
    76.36667  2938.63333   0.
    77.64500  2938.65000   0.
    78.92333  2938.66667   0.
    79.43667  2938.73333   0.
    80.72000  2938.85000   0.
    82.00333  2938.96667   0.
    82.51667  2939.03333   0.
    83.79500  2939.10000   0.
     0.08400  2959.57200   0.
     1.19600  2958.89800   0.
     2.30800  2958.22400   0.
     4.53000  2956.94200   0.
     5.64000  2956.33400   0.
     6.75000  2955.72600   0.
     7.86000  2955.11800   0.
    10.35750  2953.84750   0.
    11.74500  2953.18500   0.
    13.13250  2952.52250   0.
    15.90750  2951.24000   0.
    17.29500  2950.62000   0.
    18.68250  2950.00000   0.
    21.18200  2948.82200   0.
    22.29400  2948.26400   0.
    23.40600  2947.70600   0.
    24.51800  2947.14800   0.
    26.74000  2946.00600   0.
    27.85000  2945.42200   0.
    28.96000  2944.83800   0.
    30.07000  2944.25400   0.
    32.56750  2943.00000   0.
    33.95500  2942.33000   0.
    35.34250  2941.66000   0.
    38.11750  2940.39750   0.
    39.50500  2939.80500   0.
    40.89250  2939.21250   0.
    43.66750  2938.18250   0.
    45.05500  2937.74500   0.
    46.44250  2937.30750   0.
    49.22000  2936.51750   0.
    50.61000  2936.16500   0.
    52.00000  2935.81250   0.
    54.77750  2935.01750   0.
    56.16500  2934.57500   0.
    57.55250  2934.13250   0.
    60.32750  2933.25500   0.
    61.71500  2932.82000   0.
    63.10250  2932.38500   0.
    65.87750  2931.91500   0.
    67.26500  2931.88000   0.
    68.65250  2931.84500   0.
    71.43000  2931.69750   0.
    72.82000  2931.58500   0.
    74.21000  2931.47250   0.
    76.98750  2931.44500   0.
    78.37500  2931.53000   0.
    79.76250  2931.61500   0.
    82.53750  2931.75500   0.
    83.92500  2931.81000   0.
     6.60134  2937.05984   0.
    20.80435  2932.52560   0.
     3.78758  2946.36592   0.
    15.48523  2940.98228   0.
    29.30091  2934.50364   0.
    23.90594  2939.46561   0.
    40.87322  2931.62711   0.
     1.03219  2951.87344   0.
    10.83406  2946.32292   0.
    20.42668  2943.42459   0.
    48.80952  2930.83467   0.
    35.50309  2935.49258   0.
     7.54365  2949.73854   0.
    28.57967  2939.84283   0.
    15.90963  2945.83181   0.
    44.30452  2933.27820   0.
    -0.12722  2955.42655   0.
    24.47411  2943.04615   0.
     4.45051  2952.86019   0.
    40.01017  2935.22543   0.
    52.75593  2931.58993   0.
    13.75183  2934.27842   0.
    32.31862  2938.44653   0.
     0.40990  2931.04902   0.
    19.20708  2946.27332   0.
    57.19103  2930.55709   0.
    -0.97178  2947.27328   0.
    19.39705  2939.49643   0.
    11.08068  2950.12444   0.
    32.86215  2930.47012   0.
     7.41320  2941.82707   0.
    13.76382  2948.77946   0.
    27.17579  2942.79365   0.
     7.27112  2952.68663   0.
     2.71547  2954.94653   0.
    22.91159  2945.17994   0.
     2.00816  2941.86911   0.
    24.73355  2934.79062   0.
    47.86753  2934.00196   0.
    50.62083  2933.29089   0.
    60.15732  2930.28185   0.
    37.65425  2937.53830   0.
    44.64836  2929.77041   0.
    10.93416  2939.02064   0.
     4.26476  2949.76242   0.
    36.78915  2931.78219   0.
     7.36345  2946.13476   0.
    30.92470  2941.06806   0.
     6.19921  2931.10091   0.
    35.16618  2938.51604   0.
    16.36294  2929.87801   0.
    13.43632  2943.77014   0.
    42.64967  2935.50406   0.
    26.89596  2931.23775   0.
     1.59760  2936.73753   0.
    17.19200  2948.13905   0.
    -0.61497  2957.60981   0.
    26.49360  2937.36117   0.
     9.56799  2951.50953   0.
    17.55858  2943.77119   0.
    55.26825  2932.33039   0.
    22.03247  2936.46128   0.
    16.10828  2937.24515   0.
    22.48452  2941.40733   0.
    20.86327  2946.43955   0.
    29.71126  2937.35408   0.
    32.14062  2935.59882   0.
    45.26358  2935.44707   0.
    29.19256  2942.39482   0.
    25.22337  2944.48902   0.
    25.77440  2940.40763   0.
     5.12787  2951.33100   0.
     9.72036  2943.07255   0.
     0.63027  2944.64860   0.
     5.15669  2954.13690   0.
    33.80274  2940.56791   0.
     1.57076  2956.41210   0.
     9.31000  2947.97928   0.
     9.87726  2933.53233   0.
    53.60824  2932.85261   0.
    40.63972  2936.89193   0.
    13.47285  2946.23828   0.
    37.68088  2934.75035   0.
    46.32767  2931.88185   0.
    18.64740  2941.16071   0.
    13.09413  2950.32980   0.
    18.01744  2935.92389   0.
     0.55332  2948.73049   0.
     5.35766  2947.55011   0.
    42.44669  2933.52960   0.
    57.75733  2932.24094   0.
    23.68300  2931.83870   0.
    19.94397  2947.74183   0.
    61.81887  2931.15328   0.
[...]
POINT_DATA      1414
CELL_DATA      2568
SCALARS Resistivity(ohm.m) double 1
LOOKUP_TABLE default
          1073.49447          1776.55945          2351.82611          1020.00810           523.32668          2273.23498          1248.17370          1477.53811          1743.93961          2141.16216           758.04589          2108.87336           596.73418          2266.53392          2254.88557          1945.33742          1614.34036           484.28003           430.66797          2315.75728          1151.89433          1961.83841          1238.84181           586.35659          1904.63473           489.79056           293.08977          2237.06670          2275.37568          2358.60041           450.18564           509.85986          1692.38364           413.57393           382.34638          1681.44743           722.37930           861.13704          1187.40720          1529.82780          1920.53333           682.26096           407.27283          2332.38061           329.15894           439.12063          2765.03778           796.76866           615.09219           896.85831          2423.94326          1906.83903           970.70692          1628.80653          2331.87411           813.98232           357.21119          2318.53491           423.65129          1035.16911           533.24143          2140.63742           484.01585          1895.36068           293.08169          1644.82554          2144.22032          2076.16164           304.97470           613.33526           483.62152           770.74118          2101.85235           383.75455           356.22948          2884.65656          1401.41066           470.26851           371.21508          2600.55252          2465.52467          1416.62669           403.54474           442.19867          2074.10863           672.69000           336.04332          2181.76561           842.63468          1935.28001           964.32648           343.92622          2302.04666           399.15213          1808.08986          2044.97275           536.97109          1166.83667          2186.43640           907.76224          1549.12291           513.79930           572.20091           701.56757          1059.17560          1770.79479           500.63929           898.01368          2209.19463          1254.62956           425.63593          1078.73679          2524.79872          1829.53564          2097.99071          1337.63616          1001.23440          1533.50934           397.91796           326.74814          2287.89940          1367.24456          2863.48914           673.79055           513.21415          2091.24734          2436.10661          3096.48932          1853.38320          1390.23241          2109.49109          1005.31112          1209.61349          2224.33392           780.15475          2833.80292           421.21426          1723.53637           903.16277          1402.45134          1616.21859           492.52851           549.91160          1298.34215          1688.04533           525.27202           423.51060          1467.08020          1974.38245           495.00164          2373.83073          1966.25274           870.99237           684.77783          2249.73432           327.49503          1603.88160           419.93192          2255.58602          1269.88099          1119.36400           478.24344          2401.72416           461.30776          2284.90216           552.83354          1407.46185          1845.22294          2014.18960          1766.06758           707.09709           722.74830           618.99383           296.46607           382.87310           902.48486           692.61253          3489.03499          2672.54209          1059.02907          2244.93900          1383.79351          2032.57596           660.83905           526.70267           854.47265           744.77566           566.39521           843.69120          2400.41920          1179.45653          2336.27129           506.65820          2499.72750           293.63691           441.62286          2436.23411          2131.30002          1169.47956           378.25240           327.88700           802.83235          1815.77756          1459.21102          1828.91732           942.02251          3812.19992          2368.29492           361.81410          2332.46178          1292.45217           553.39200           384.11769           347.44541           529.55599          1117.95754          2321.63966           488.98374          1179.46816           466.61528           848.82460          1276.05494          1027.22772           362.72268           603.20758           545.47672           415.45274           469.04522          1319.45035           337.83573          1012.90130          2101.55250          1390.18155          2976.99290          2290.46699          1654.09410          2312.26675          1398.13812          1353.72725          1342.74992          2484.23327           630.33070           840.91996           380.73136          2350.53331           304.38730          1895.67952           468.76004           478.70805          2212.04679           296.85076          2092.58358          1723.20248           580.51618          2034.00303           898.22316           629.60055           615.44082           650.57114          2949.77027           573.89494          2284.43336           492.52907           392.05201           423.20804          1623.72797           363.14434          2306.51093           779.26716          2387.71677           960.30026          2185.17403          2475.75054          2220.73709           465.86674          1626.85275          2310.93669           477.26316           689.07528           644.10436           491.00541          1408.41315           310.11817           854.10939           876.75476          2336.87645           414.17700          2313.83523           598.74149           482.03070           903.20700           339.45284          2245.69165           554.88571          1977.79172          2268.71591          1397.11939           483.50535           402.70510           551.30003           963.42088           410.92433          2358.99039          2489.16820           408.73926          1886.88038          1301.01016          1536.77549          2018.78912           418.60181           580.65086           577.50847           303.72131          2293.24951           761.38744           361.94718           490.54321          1109.28842          2833.36758           468.11958          3243.81521           382.38669           970.85750           468.46486           470.65314          1150.38892           439.96928          1427.32996           939.59495          2758.94008          1796.05069          2212.79191           442.71330          1555.59004           344.90975           371.65286           506.17131           563.91313          3102.73483           510.17919          2147.33696           452.23370          2157.64570           450.90290           518.46694          1855.99994          1131.64644          1138.99254           441.21195          2182.84151           477.68541          2399.20408           665.73268           408.11702           411.84936          2093.58327           461.19252          1564.64920           316.81762           357.58287           802.99186          1563.14596           856.36469           455.64174          1349.61653           440.36901           388.34702          2301.87548          1777.41065          2697.38684           478.75924          1304.84076          1401.56233           969.75647           311.72401          2566.94024           384.91789           492.69049           432.99313          2046.87866          1343.00503           471.06600          1857.36641          2299.87345           307.40554          1351.64782           548.20187          1313.98736           399.07065          1476.04272           591.67155           328.59110          1452.30185          1319.80586           457.00683           783.62653           489.67168          1309.97954          1778.60816           975.05053           559.58519           529.50549          1310.35985          1507.18613          1268.73012           760.87450           490.60353           823.12199          2276.42100          1648.18244          1480.27848          2167.40877           973.72556           613.30841          1073.56244          2354.81671           666.86308           884.78686           667.93390          1751.40203           941.04311           354.65588          2183.12750          1381.47528          1228.83770           298.57610          1625.62807           556.42513          1401.03538           480.43896          1285.71718           482.93167           458.57923          1976.76390           968.17146          1466.44976          1479.92107           628.52458          1955.51935          1256.18555          3455.44819           560.04569          1113.99371          2129.95696          1073.83331          1022.94551          1300.20003          1154.95188          4194.29654           736.17973          3209.04944          1558.30108          1469.96472          1166.86712          1687.69516           751.04959          2177.81545           795.90285          1318.41746           454.32106          1923.78231          1297.90720           758.94915          1288.49724          2234.79492           733.48226           834.26135          1144.93390          1722.01658          1654.37911           801.02289          1845.13845           808.58628           308.61248          1951.09428          3886.88701          1016.21157           408.68951          1486.50146           680.46482          1012.10150          1982.75954           444.26849           517.34084          2196.64653          2550.24571          1219.18526           395.69946           675.81588           716.66050          1245.14151          1102.17917           966.72081          1572.64451           689.08253          1517.14429           667.95635           986.43917          2604.52522          1836.46123           650.56767           362.94759           575.47651          1223.79332           686.24828          1164.59607          3692.34370          1212.65882           341.31256           427.50126          1228.46443          1142.50823           818.52363           368.87168          3180.29786          1449.44781           345.67138          3354.53051          2224.98078           450.02159          1361.96083          1203.23700           986.02872          1148.88019           994.42997           468.34584          1589.92266          1478.51021          1495.32821          1257.56684           603.02199          1756.95528           490.46833          1179.04072           494.25259           460.34824           629.22242          1731.96121          1035.01907           805.93946           481.75458           363.80973          1717.58130          1082.14990          4432.25900          5023.11051          3514.90685          2099.79547          1960.53891          2235.40211          3648.31940          5238.88159           624.90798          4944.52260           486.82247          1109.47291          1459.54014           529.05449          4459.00801          5609.63344          1278.17862           384.98733          1962.24230          2501.92297           785.91660           774.17891          1373.62272          4292.69543          1145.30264          2662.78257          1244.57398           485.48048          1565.60786          1584.67391           379.85258          3178.63165           521.33818          1415.41746          5476.62458          3882.18535          1698.37221          6004.30832           340.13908           804.59186           481.05182          1861.64671          2521.53353          1571.81031          2854.20450          1794.01945          2435.67612           855.81188          1548.59077          1232.07337          1775.59069          8790.56084          3531.46002           917.29250          4719.30036          3905.87972           902.89999           676.73027          5571.10095          2645.45389          4305.14602          5810.03733          1482.24998           826.57677           703.69939           438.99976           823.47260          4481.24540          1454.48365          1025.67453          1600.31527           378.10652          1161.43838          1693.85909          3915.81239           865.33188           950.77482           688.70720           791.27274          1589.26670          1495.53533           712.78388          3165.40478          2842.99199          3092.05376          3191.93576          5711.37661          4627.77386          2462.17957           506.29071          4921.20502          1181.37964          1459.54085           650.66294          1379.68558           928.31081           441.90620          7310.77917          5463.76242          1416.54488          1600.28466          2574.02454          2185.35895          3159.16226          3208.09465           896.83202          1109.11140           578.19922           895.32506           358.76729           532.82531           870.93551           516.84341          1975.53865          4626.85830          3431.89376          1371.44945          2199.31537          1330.01373          1623.10409          7830.40573          5089.59073          1864.95304           381.30618           586.49991          5792.33309           667.45040          3962.41337          4634.29167          1125.55317          2379.72641           633.85972          1116.37520          1137.92539          2271.56264          2316.08149          2610.26499           578.16256           433.95186          1290.21195           399.59049           624.02512           355.42198          3367.05853          5170.50718           405.56477          2854.53268           788.78343          2450.69660          1364.52867           754.76282           609.46222           651.74935           598.92853          1966.89162           701.44861          1386.07290           661.25139          2625.67392          1847.51830          3918.30499          2939.93651           632.66347           592.09097           380.17891          2913.93883           704.53149           660.65407          1242.85690          2551.01384           805.81650           823.06579           544.81057          1232.65505          1081.67684          1477.57093          1260.13379           575.99749           831.14422           781.30135          2463.93403          2112.10954          1271.63723          7629.78261          1113.93603           765.81447           881.53512          1301.85241          2330.00336          1500.28902          1602.97325          1398.05646          2630.40688           906.93412          7581.06349          1421.59768          2513.29597           725.14370          1295.89245          3775.51595          3192.29914           747.36277          1078.40093          3234.41948           459.95377           532.02375          1234.76324          3062.91503          6290.43442          1504.79760          6946.01434          1166.47112          1650.99718          1449.51697          1333.76112           467.01901           856.46294          2556.48353           681.62913          4255.14502           562.37601          3015.01058           821.09122           657.12531          1451.01523          2026.68236          2705.07798          4929.41818          2563.53377          1592.55812          1590.66801          1389.31986          6731.99010          7260.64920          2000.90968           969.04096          2749.88179           579.99676          1254.61758           878.37993          2465.01358          1282.58037          1088.33600           586.96227           578.51154          3757.28432           906.17836           741.74126          6475.15542          3912.41982          2543.34396          1400.16978          8230.42985           821.55714          2430.89019          3028.98387          2201.54311           990.27909          2973.00182          5806.03434          1663.99148           363.18378           753.59400           842.30647          1629.78384          1552.49598           619.53249           676.93521          7019.89945           815.42449          1130.57690          1942.82506          3826.80029          5422.41534           383.13712          1268.88170           876.68754          1021.38464          1722.93916           730.91542           813.38019          1491.72428           902.66176           526.22100           347.37124           854.56321          2723.73866           492.78140          2722.59155          1600.52697          2235.10436          1333.67596          1835.17627          1542.13442           361.72058          3824.47266          1362.28455          1940.40280          1767.14693          2116.15190          5539.73736          1018.31609          5285.40794           599.42596           750.99282          1531.93058          1302.72074          7363.47145          2454.30547           815.45565          1733.16036          4142.30699          3442.88788           666.66911          4961.08712          1357.77057          2915.70023          1124.00246          3763.59980          3782.35804           506.36761          3501.54880          4249.87372          2431.95009          5261.43350           874.94327           809.79077          1289.51582          2371.48615           416.86404          8332.32957          4289.96273           696.13233          1728.00894          1538.98509          1825.41369           840.26112          1266.92464         12269.23076           648.64195          2358.85657          1320.43612           460.20223           777.73794          2451.82779          5287.41698          6216.49816          1707.50187          2851.15136          2476.38564          4567.26912           798.26529          1472.37417          1944.54281          1707.04748          5247.28681           584.13129          1287.79868          2742.02503           823.35092          3987.33829          2238.54293          6668.85369          2239.08916          1218.82550          1240.52047           590.60718          5081.50240          7123.19094          2047.64553           337.40023           360.95187           799.16490           787.68436          6278.77285          1481.72961          2147.68039          3041.32216          2778.81716          5704.05219          5501.86064           385.35194           654.31869           779.01609          1136.85558           610.53566          4566.23382          3839.41604          1231.27747           774.01532          1105.86862          2388.82549          3851.21583          2375.68851          2034.25014           784.57138          4796.71865          7563.99530           454.26354           673.51669          1767.11349          7527.94126          1867.43621          3227.56264          5254.50165           805.81602          1714.63859          5010.35524           663.80302          1398.97595          1148.50622          5366.76413           882.70190          1752.21502          3221.80824          5954.95198          4424.97013          5929.86425          4663.76169          4159.21168          1898.98982           854.30626          3703.60354          9491.33182           536.33895          2489.48503          2666.79819           322.11596          2638.45103          3244.25504          2406.40737           452.48931          4433.75140           812.37575          3313.11749          4360.93235          1804.50263           799.89931          3083.25739          3600.36038          5466.31524          6159.54648          5344.06335           666.55296           598.31519          1146.93435          5315.25710          1135.49415          2741.32155           774.08377           801.030