# vtk DataFile Version 3.0
Output from R2
ASCII
DATASET UNSTRUCTURED_GRID
POINTS       1414 double
     0.00000  2968.10000   0.
     1.54000  2966.60000   0.
     3.08000  2964.90000   0.
     4.61000  2964.10000   0.
     6.15000  2963.30000   0.
     7.69000  2962.60000   0.
     9.23000  2961.50000   0.
    10.76000  2960.70000   0.
    12.30000  2960.00000   0.
    13.84000  2959.30000   0.
    15.38000  2958.70000   0.
    16.91000  2958.10000   0.
    18.45000  2957.30000   0.
    19.99000  2956.60000   0.
    21.52000  2955.80000   0.
    23.06000  2955.00000   0.
    24.60000  2954.30000   0.
    26.14000  2953.50000   0.
    27.68000  2952.80000   0.
    29.21000  2951.90000   0.
    30.75000  2951.10000   0.
    32.29000  2950.20000   0.
    33.83000  2949.50000   0.
    35.36000  2948.70000   0.
    36.90000  2948.10000   0.
    38.44000  2947.30000   0.
    39.98000  2946.70000   0.
    41.51000  2946.10000   0.
    43.05000  2945.50000   0.
    44.59000  2945.10000   0.
    46.13000  2944.50000   0.
    47.66000  2944.10000   0.
    49.20000  2943.60000   0.
    50.74000  2943.40000   0.
    52.28000  2943.00000   0.
    53.81000  2942.50000   0.
    55.35000  2942.10000   0.
    56.89000  2941.60000   0.
    58.43000  2941.00000   0.
    59.96000  2940.60000   0.
    61.50000  2940.10000   0.
    63.04000  2939.50000   0.
    64.58000  2939.10000   0.
    66.11000  2939.20000   0.
    67.65000  2939.20000   0.
    69.19000  2939.10000   0.
    70.73000  2938.90000   0.
    72.26000  2938.60000   0.
    73.80000  2938.30000   0.
    75.34000  2938.50000   0.
    76.88000  2938.70000   0.
    78.41000  2938.60000   0.
    79.95000  2938.80000   0.
    81.49000  2938.90000   0.
    83.03000  2939.10000   0.
    84.56000  2939.10000   0.
     3.42000  2957.55000   0.
     8.97000  2954.51000   0.
    14.52000  2951.86000   0.
    20.07000  2949.38000   0.
    25.63000  2946.59000   0.
    31.18000  2943.67000   0.
    36.73000  2940.99000   0.
    42.28000  2938.62000   0.
    47.83000  2936.87000   0.
    53.39000  2935.46000   0.
    58.94000  2933.69000   0.
    64.49000  2931.95000   0.
    70.04000  2931.81000   0.
    75.60000  2931.36000   0.
    81.15000  2931.70000   0.
     0.51333  2967.60000   0.
     1.02667  2967.10000   0.
     2.05333  2966.03333   0.
     2.56667  2965.46667   0.
     3.59000  2964.63333   0.
     4.10000  2964.36667   0.
     5.12333  2963.83333   0.
     5.63667  2963.56667   0.
     6.66333  2963.06667   0.
     7.17667  2962.83333   0.
     8.20333  2962.23333   0.
     8.71667  2961.86667   0.
     9.74000  2961.23333   0.
    10.25000  2960.96667   0.
    11.27333  2960.46667   0.
    11.78667  2960.23333   0.
    12.81333  2959.76667   0.
    13.32667  2959.53333   0.
    14.35333  2959.10000   0.
    14.86667  2958.90000   0.
    15.89000  2958.50000   0.
    16.40000  2958.30000   0.
    17.42333  2957.83333   0.
    17.93667  2957.56667   0.
    18.96333  2957.06667   0.
    19.47667  2956.83333   0.
    20.50000  2956.33333   0.
    21.01000  2956.06667   0.
    22.03333  2955.53333   0.
    22.54667  2955.26667   0.
    23.57333  2954.76667   0.
    24.08667  2954.53333   0.
    25.11333  2954.03333   0.
    25.62667  2953.76667   0.
    26.65333  2953.26667   0.
    27.16667  2953.03333   0.
    28.19000  2952.50000   0.
    28.70000  2952.20000   0.
    29.72333  2951.63333   0.
    30.23667  2951.36667   0.
    31.26333  2950.80000   0.
    31.77667  2950.50000   0.
    32.80333  2949.96667   0.
    33.31667  2949.73333   0.
    34.34000  2949.23333   0.
    34.85000  2948.96667   0.
    35.87333  2948.50000   0.
    36.38667  2948.30000   0.
    37.41333  2947.83333   0.
    37.92667  2947.56667   0.
    38.95333  2947.10000   0.
    39.46667  2946.90000   0.
    40.49000  2946.50000   0.
    41.00000  2946.30000   0.
    42.02333  2945.90000   0.
    42.53667  2945.70000   0.
    43.56333  2945.36667   0.
    44.07667  2945.23333   0.
    45.10333  2944.90000   0.
    45.61667  2944.70000   0.
    46.64000  2944.36667   0.
    47.15000  2944.23333   0.
    48.17333  2943.93333   0.
    48.68667  2943.76667   0.
    49.71333  2943.53333   0.
    50.22667  2943.46667   0.
    51.25333  2943.26667   0.
    51.76667  2943.13333   0.
    52.79000  2942.83333   0.
    53.30000  2942.66667   0.
    54.32333  2942.36667   0.
    54.83667  2942.23333   0.
    55.86333  2941.93333   0.
    56.37667  2941.76667   0.
    57.40333  2941.40000   0.
    57.91667  2941.20000   0.
    58.94000  2940.86667   0.
    59.45000  2940.73333   0.
    60.47333  2940.43333   0.
    60.98667  2940.26667   0.
    62.01333  2939.90000   0.
    62.52667  2939.70000   0.
    63.55333  2939.36667   0.
    64.06667  2939.23333   0.
    65.34500  2939.15000   0.
    66.88000  2939.20000   0.
    68.42000  2939.15000   0.
    69.70333  2939.03333   0.
    70.21667  2938.96667   0.
    71.24000  2938.80000   0.
    71.75000  2938.70000   0.
    72.77333  2938.50000   0.
    73.28667  2938.40000   0.
    74.31333  2938.36667   0.
    74.82667  2938.43333   0.
    75.85333  2938.56667   0.
    76.36667  2938.63333   0.
    77.64500  2938.65000   0.
    78.92333  2938.66667   0.
    79.43667  2938.73333   0.
    80.72000  2938.85000   0.
    82.00333  2938.96667   0.
    82.51667  2939.03333   0.
    83.79500  2939.10000   0.
     0.08400  2959.57200   0.
     1.19600  2958.89800   0.
     2.30800  2958.22400   0.
     4.53000  2956.94200   0.
     5.64000  2956.33400   0.
     6.75000  2955.72600   0.
     7.86000  2955.11800   0.
    10.35750  2953.84750   0.
    11.74500  2953.18500   0.
    13.13250  2952.52250   0.
    15.90750  2951.24000   0.
    17.29500  2950.62000   0.
    18.68250  2950.00000   0.
    21.18200  2948.82200   0.
    22.29400  2948.26400   0.
    23.40600  2947.70600   0.
    24.51800  2947.14800   0.
    26.74000  2946.00600   0.
    27.85000  2945.42200   0.
    28.96000  2944.83800   0.
    30.07000  2944.25400   0.
    32.56750  2943.00000   0.
    33.95500  2942.33000   0.
    35.34250  2941.66000   0.
    38.11750  2940.39750   0.
    39.50500  2939.80500   0.
    40.89250  2939.21250   0.
    43.66750  2938.18250   0.
    45.05500  2937.74500   0.
    46.44250  2937.30750   0.
    49.22000  2936.51750   0.
    50.61000  2936.16500   0.
    52.00000  2935.81250   0.
    54.77750  2935.01750   0.
    56.16500  2934.57500   0.
    57.55250  2934.13250   0.
    60.32750  2933.25500   0.
    61.71500  2932.82000   0.
    63.10250  2932.38500   0.
    65.87750  2931.91500   0.
    67.26500  2931.88000   0.
    68.65250  2931.84500   0.
    71.43000  2931.69750   0.
    72.82000  2931.58500   0.
    74.21000  2931.47250   0.
    76.98750  2931.44500   0.
    78.37500  2931.53000   0.
    79.76250  2931.61500   0.
    82.53750  2931.75500   0.
    83.92500  2931.81000   0.
     6.60134  2937.05984   0.
    20.80435  2932.52560   0.
     3.78758  2946.36592   0.
    15.48523  2940.98228   0.
    29.30091  2934.50364   0.
    23.90594  2939.46561   0.
    40.87322  2931.62711   0.
     1.03219  2951.87344   0.
    10.83406  2946.32292   0.
    20.42668  2943.42459   0.
    48.80952  2930.83467   0.
    35.50309  2935.49258   0.
     7.54365  2949.73854   0.
    28.57967  2939.84283   0.
    15.90963  2945.83181   0.
    44.30452  2933.27820   0.
    -0.12722  2955.42655   0.
    24.47411  2943.04615   0.
     4.45051  2952.86019   0.
    40.01017  2935.22543   0.
    52.75593  2931.58993   0.
    13.75183  2934.27842   0.
    32.31862  2938.44653   0.
     0.40990  2931.04902   0.
    19.20708  2946.27332   0.
    57.19103  2930.55709   0.
    -0.97178  2947.27328   0.
    19.39705  2939.49643   0.
    11.08068  2950.12444   0.
    32.86215  2930.47012   0.
     7.41320  2941.82707   0.
    13.76382  2948.77946   0.
    27.17579  2942.79365   0.
     7.27112  2952.68663   0.
     2.71547  2954.94653   0.
    22.91159  2945.17994   0.
     2.00816  2941.86911   0.
    24.73355  2934.79062   0.
    47.86753  2934.00196   0.
    50.62083  2933.29089   0.
    60.15732  2930.28185   0.
    37.65425  2937.53830   0.
    44.64836  2929.77041   0.
    10.93416  2939.02064   0.
     4.26476  2949.76242   0.
    36.78915  2931.78219   0.
     7.36345  2946.13476   0.
    30.92470  2941.06806   0.
     6.19921  2931.10091   0.
    35.16618  2938.51604   0.
    16.36294  2929.87801   0.
    13.43632  2943.77014   0.
    42.64967  2935.50406   0.
    26.89596  2931.23775   0.
     1.59760  2936.73753   0.
    17.19200  2948.13905   0.
    -0.61497  2957.60981   0.
    26.49360  2937.36117   0.
     9.56799  2951.50953   0.
    17.55858  2943.77119   0.
    55.26825  2932.33039   0.
    22.03247  2936.46128   0.
    16.10828  2937.24515   0.
    22.48452  2941.40733   0.
    20.86327  2946.43955   0.
    29.71126  2937.35408   0.
    32.14062  2935.59882   0.
    45.26358  2935.44707   0.
    29.19256  2942.39482   0.
    25.22337  2944.48902   0.
    25.77440  2940.40763   0.
     5.12787  2951.33100   0.
     9.72036  2943.07255   0.
     0.63027  2944.64860   0.
     5.15669  2954.13690   0.
    33.80274  2940.56791   0.
     1.57076  2956.41210   0.
     9.31000  2947.97928   0.
     9.87726  2933.53233   0.
    53.60824  2932.85261   0.
    40.63972  2936.89193   0.
    13.47285  2946.23828   0.
    37.68088  2934.75035   0.
    46.32767  2931.88185   0.
    18.64740  2941.16071   0.
    13.09413  2950.32980   0.
    18.01744  2935.92389   0.
     0.55332  2948.73049   0.
     5.35766  2947.55011   0.
    42.44669  2933.52960   0.
    57.75733  2932.24094   0.
    23.68300  2931.83870   0.
    19.94397  2947.74183   0.
    61.81887  2931.15328   0.
[...]
POINT_DATA      1414
CELL_DATA      2568
SCALARS Resistivity(ohm.m) double 1
LOOKUP_TABLE default
          1292.31824          1899.18987          2049.27606          1241.94536           493.92964          2070.51894          1272.59891          1513.49740          1713.02067          2105.05679           688.08204          2090.73478           545.75062          2328.13312          2309.16036          1970.03759          1716.19991           437.17421           526.59737          2221.76045          1157.13355          2021.65463          1430.18950           611.10393          1973.26274           501.76776           238.06827          2096.83993          2244.29377          2060.48909           541.43896           511.28786          1823.37391           436.34240           339.03027          1720.24227           640.51360          1013.57853          1374.22789          1586.19140          1876.35598           604.60318           483.76851          2355.93551           323.27793           448.72243          2985.27241           756.60696           562.75765           811.63269          2514.63596          1955.95263           978.25951          1693.55910          2172.40608           982.55425           343.62512          2058.34946           474.85808          1095.22591           498.54279          2183.75647           424.07667          1962.67849           245.17545          1622.04521          2120.70495          2086.93781           268.92611           786.18483           494.74937           667.91191          2118.64828           388.10309           289.04812          2970.07062          1617.28628           445.35931           310.36194          2780.41663          2593.27833          1445.17422           452.09688           465.58863          2117.93819           862.51754           319.10283          2140.04884           738.53133          2025.44881          1142.48296           357.21514          2052.55269           333.85819          1818.52868          2077.81589           540.86966          1288.66273          2228.85791          1087.95176          1739.63426           539.34341           652.44230           634.23729          1043.47624          1772.96119           510.10974           899.21413          2112.51494          1397.26354           351.06321          1017.60013          2552.76175          1965.17036          2085.42747          1386.86808           914.40549          1659.99664           480.15104           297.17912          2136.15804          1581.44722          3057.82668           716.64261           516.30436          2109.17664          2441.48597          3315.30495          1970.23263          1424.74032          2098.36343          1230.46030          1351.53675          2267.91027           778.75126          2855.38553           352.34107          1766.74801          1107.46840          1438.07660          1770.22766           525.93016           646.28826          1312.09300          1795.72717           575.00540           506.34420          1659.80972          2036.53367           536.76543          2099.07967          1999.58414           910.56072           603.84845          2202.00703           262.11372          1673.77199           428.00814          2262.51463          1403.08312          1190.54600           542.41123          2340.80668           512.54049          2089.68033           490.16295          1458.38069          1865.72797          1966.14423          1852.33546           616.92700           730.41350           716.09249           250.21975           436.03630           792.36764           881.52144          3567.16495          2673.81540          1199.22376          2141.41921          1434.02289          2070.15799           745.34470           517.36111          1061.72503           945.30586           693.58845           734.83685          2493.21047          1343.71291          2417.21776           646.56319          2641.14139           249.82660           555.12186          2555.74523          2102.97959          1388.44999           444.61419           262.83489           687.67519          1954.68919          1580.16740          1863.68289          1158.98821          3840.89977          2153.95383           407.80797          2112.29298          1468.99591           598.86886           454.09852           313.54146           584.68907          1338.95264          2374.75540           496.87676          1391.47648           567.15337           732.32316          1448.54484          1189.38790           317.49932           594.00883           698.12155           361.63457           591.95474          1354.26898           315.31430           923.58969          2050.59820          1595.21251          2950.11701          2265.00834          1755.62396          2330.62684          1483.95046          1532.75545          1544.43853          2601.70074           583.40445          1058.04417           405.66328          2433.22070           242.57785          1998.03199           519.55637           422.09733          2109.85884           235.71899          2054.90308          1854.72916           736.99795          2075.73335           983.37526           584.09145           772.09408           656.06988          2872.25620           510.43373          2106.34883           476.11832           446.22846           489.27701          1766.23138           337.58418          2042.63311           990.32119          2132.80085           868.16451          2103.19416          2434.39468          2122.88730           477.73442          1797.88847          2128.65583           460.89197           613.18490           581.89312           456.05548          1494.03170           253.00219           956.98493           811.21213          2055.57214           512.23346          2272.20512           562.82593           452.20152           788.56214           278.56396          2272.49464           703.65247          2041.91321          2113.25206          1598.94614           565.89124           448.43623           694.51522           885.19771           490.83942          2395.26332          2562.60172           428.59454          1903.35439          1449.42597          1690.51174          2003.73026           362.19140           744.28519           522.02750           274.84269          2068.92532           660.00574           305.65733           509.43878          1054.75209          2749.30494           487.40197          3293.87332           393.46428           975.46233           431.86388           589.53726          1348.97410           507.70917          1482.80657          1164.59011          2892.61480          1927.65323          2104.01372           534.03111          1718.25447           340.31151           411.59410           642.40958           569.97706          3201.87872           562.81088          2167.85456           389.48521          2110.33937           471.85786           596.48217          1898.46259          1281.78224          1104.72645           499.51379          2138.67803           434.58720          2473.98382           836.04402           338.83549           508.57264          2123.76147           531.41909          1750.08520           304.08746           393.33396           689.84872          1610.45406           818.80156           539.58405          1483.65637           499.61502           327.54609          2119.26332          1915.19724          2647.11718           444.74924          1411.64628          1569.85802           867.28745           277.25726          2676.17293           414.04896           485.47086           441.35279          2094.53875          1526.37418           404.95373          1849.35675          2342.79482           243.34408          1460.81154           532.58528          1399.53295           482.86231          1624.30998           750.94654           328.86062          1541.70377          1375.24136           410.61978           692.87231           591.69634          1310.18635          1836.89854           945.00998           501.74375           659.08921          1526.74575          1499.61972          1487.57100           912.10114           515.55120          1017.54162          2077.08368          1831.58445          1682.37708          2205.24294           908.98807           629.59662          1035.03171          2361.04396           597.71585           906.14357           623.23505          1906.42775           885.44347           389.23117          2172.84262          1536.23380          1436.83700           262.23348          1669.19379           515.00616          1542.72340           492.31488          1502.50769           472.84381           406.64085          1955.86489          1083.18678          1639.55803          1688.20829           572.27449          1967.79485          1244.42566          3607.23959           602.40515          1331.54959          2070.43164          1289.60233          1128.63225          1375.91469          1366.81634          4074.24932           905.31440          3366.94328          1756.87192          1519.15845          1125.66587          1739.07182           826.01209          2201.34668           997.01816          1446.89515           439.82487          2005.92625          1507.44452           950.80987          1302.98169          2101.45144           846.60430           742.23095          1123.29529          1757.54961          1833.68587           706.17129          1944.76010           879.28970           266.56068          2027.75100          3815.05679           978.16703           444.05581          1607.92262           668.02123           963.58749          1965.86171           557.64090           542.82829          2107.89793          2720.97564          1229.28070           324.85300           617.01109           757.87268          1452.01408          1090.91870          1193.02216          1586.70762           847.25463          1534.50424           799.62235          1138.78055          2535.72282          1922.92880           584.11412           296.12601           529.77158          1413.76403           796.49451          1346.88277          3573.82054          1431.87372           360.19533           530.98680          1269.32435          1344.69335           853.37034           407.22962          3156.57496          1451.11569           368.26614          3258.58959          2214.64202           432.16115          1576.01397          1417.04793          1199.35134          1181.52003          1189.91321           579.26758          1714.23249          1523.44899          1556.57218          1247.82188           740.33160          1861.08638           435.57392          1140.17377           608.88637           434.65474           752.43308          1894.84166          1224.40668          1017.27815           438.21536           389.46011          1875.72851          1288.48523          3833.28483          4199.75628          3250.52891          2104.41305          1981.56570          2063.43241          3480.03079          4731.67848           671.46974          4572.29216           418.92080          1107.91661          1557.06520           667.64656          3238.89191          4699.69464          1197.86764           448.39713          2226.30548          2686.40885           781.87635           849.84580          1389.24626          4665.50060          1366.41419          2358.32585           887.86867           634.94812          1336.96978          1496.06001           456.59144          3519.51752           538.11855          1281.01301          4852.02927          4247.98354          1704.13746          4745.09863           274.30164           865.63569           517.13200          1825.72097          2677.96122          1868.36794          3091.93028          1983.51518          2590.69625           782.85770          1773.93708          1330.56426          1813.72533          7297.88494          3621.25238          1033.47589          5011.46991          4057.57708           755.13176           660.14207          4528.69621          2746.27008          4691.24109          4685.27368          1369.06911           942.04826           655.38649           504.92753           862.17488          4330.77924          1734.99180          1052.32809          1641.61986           315.16534          1041.10541          1942.06239          3569.82393          1025.11498           873.64077           698.47516           794.90497          1491.61290          1416.22922           851.53409          3072.54610          2934.95541          3404.25165          3017.11508          5998.30299          3928.68586          2543.43104           628.39497          3966.94492          1260.41100          1696.82527           632.58513          1319.79029           911.49545           384.24982          5911.36440          5280.01790          1519.76458          1646.18148          2777.82616          2472.38148          3115.24885          2787.73601           978.94916          1339.93442           539.20027           789.68479           456.98349           550.80503           795.22454           610.65058          2194.93092          3774.61151          3109.56045          1557.76046          2154.41998          1541.18404          1520.37047          7363.09073          4913.93473          1837.93847           481.49063           585.40927          4761.99050           686.93297          3577.83818          4080.78930          1026.33077          2137.23491           657.45370           898.36724          1027.84320          2194.50204          2224.64968          2908.63041           613.85520           564.55340          1063.98294           343.84110           602.89568           442.68841          3560.86277          4984.67113           467.63934          2913.53869           874.41962          2603.89099          1075.14535           673.19404           632.11943           724.58019           657.40789          2044.35184           753.75880          1374.34144           690.72932          2493.43607          1819.55347          4063.23103          2552.81602           628.83971           508.47755           316.15664          2836.61791           721.18974           721.72478          1470.91679          2757.78752           724.06372           860.32303           521.97933          1463.80922           911.39637          1762.28770          1421.26553           593.01679           679.34455           681.50829          2598.81530          1877.24274          1102.79483          6966.05860          1029.60288          1001.00665          1012.21519          1650.88843          2505.60121          1573.18841          1477.84364          1770.81729          2678.18562           589.55605          6189.56579          1316.29151          2677.81171           899.31069          1080.23468          4151.90650          2485.87067           734.00936          1260.51141          3265.99688           501.23936           499.85087          1154.43158          2636.82719          5389.16651          1433.65237          6643.37681          1487.98321          1723.39905          1546.87405          1054.69413           451.54722           833.33870          2724.64461           655.54537          4031.99993           622.54836          3540.82582           869.48463           714.35131          1409.85221          1829.94984          2872.21430          4314.63804          2686.14849          1290.36926          1795.58419          1363.25325          5149.38031          6781.20839          1966.61127          1008.83057          3014.44205           613.07853          1048.29521           853.32729          2702.71030          1042.24341           912.64011           579.95918           596.35021          3306.05254          1183.91295           811.89112          5258.42812          3425.10847          2198.70498          1287.44734          6947.34386           808.99876          2679.83154          2957.19786          2333.54201          1315.54371          2839.58104          4881.61715          1796.73955           432.86257           681.78426           945.22679          1791.49906          1792.29491           709.46290           695.03972          5867.37180           791.67822          1163.20166          1844.42450          4059.19687          4247.85300           463.09509          1440.99547           899.94736          1166.34151          1859.62168           784.88027           915.61642          1565.83373           826.55753           617.65555           443.93525           768.47636          2971.26033           516.99992          2967.36469          1751.30113          1924.03109          1322.39420          1746.31477          1581.90312           468.19450          3946.84156          1482.60680          1926.45603          2118.40060          2092.72144          4326.63831           784.91165          5541.08824           542.86300           725.60553          1679.53662          1037.50584          6937.59870          2559.01028           956.56450          1643.83262          3440.95905          3252.75254           629.93020          4939.65795          1396.15039          2768.76895          1080.98795          3135.70284          3606.23109           534.62558          3289.63247          3525.12491          2409.56706          4775.61855           898.24602           725.59305          1038.55372          2093.46673           457.51297          9776.34401          3783.84886           619.90433          1595.67385          1783.16865          2060.42048           808.87344          1057.99522         12702.67836           665.01081          2259.08321          1190.89527           530.93666           780.84651          2608.16650          5909.51657          5872.86909          1737.33496          2368.35649          2653.60716          4479.77953           679.55760          1363.61788          2059.73924          1869.06790          4809.54939           553.40682          1038.94090          3004.85142           872.53652          4125.88219          2499.34287          6629.49141          2662.59195          1111.20159          1067.31207           614.20573          4455.35252          6926.66115          1835.37292           315.78087           423.94664           789.91212           838.71310          5996.39104          1217.68371          2193.76082          2972.07328          2377.91197          5570.67666          5141.63648           359.17881           594.82233           820.29063          1180.39100           672.32916          3958.27092          3721.14221          1303.73418           690.40034          1042.17494          2023.26036          3688.50973          2316.13975          2221.72545          1007.37640          3936.32680          6746.32527           489.85342           672.95717          1708.07505          7273.34473          1969.79107          2538.08299          4598.79656           702.77643          1876.69225          4248.76419           527.10399          1503.72859          1009.02087          5767.57236          1003.93529          1761.67954          2709.83686          4580.06581          4926.63987          5909.30496          4103.24488          4205.57558          1756.56344           874.50176          3037.82137          9839.92946           645.60982          2610.81927          2725.42619           262.94996          2440.34202          3562.78232          2498.37213           436.71380          3892.67518           776.06178          3301.32380          4681.62856          1814.64846           830.90728          3173.37630          3270.44877          4490.33852          5793.91258          5479.46521           658.91087           619.85651          1373.62609          4430.52330           983.79296          2903.32466           934.37178           611.156