# vtk DataFile Version 3.0
Output from R2
ASCII
DATASET UNSTRUCTURED_GRID
POINTS       1414 double
     0.00000  2968.10000   0.
     1.54000  2966.60000   0.
     3.08000  2964.90000   0.
     4.61000  2964.10000   0.
     6.15000  2963.30000   0.
     7.69000  2962.60000   0.
     9.23000  2961.50000   0.
    10.76000  2960.70000   0.
    12.30000  2960.00000   0.
    13.84000  2959.30000   0.
    15.38000  2958.70000   0.
    16.91000  2958.10000   0.
    18.45000  2957.30000   0.
    19.99000  2956.60000   0.
    21.52000  2955.80000   0.
    23.06000  2955.00000   0.
    24.60000  2954.30000   0.
    26.14000  2953.50000   0.
    27.68000  2952.80000   0.
    29.21000  2951.90000   0.
    30.75000  2951.10000   0.
    32.29000  2950.20000   0.
    33.83000  2949.50000   0.
    35.36000  2948.70000   0.
    36.90000  2948.10000   0.
    38.44000  2947.30000   0.
    39.98000  2946.70000   0.
    41.51000  2946.10000   0.
    43.05000  2945.50000   0.
    44.59000  2945.10000   0.
    46.13000  2944.50000   0.
    47.66000  2944.10000   0.
    49.20000  2943.60000   0.
    50.74000  2943.40000   0.
    52.28000  2943.00000   0.
    53.81000  2942.50000   0.
    55.35000  2942.10000   0.
    56.89000  2941.60000   0.
    58.43000  2941.00000   0.
    59.96000  2940.60000   0.
    61.50000  2940.10000   0.
    63.04000  2939.50000   0.
    64.58000  2939.10000   0.
    66.11000  2939.20000   0.
    67.65000  2939.20000   0.
    69.19000  2939.10000   0.
    70.73000  2938.90000   0.
    72.26000  2938.60000   0.
    73.80000  2938.30000   0.
    75.34000  2938.50000   0.
    76.88000  2938.70000   0.
    78.41000  2938.60000   0.
    79.95000  2938.80000   0.
    81.49000  2938.90000   0.
    83.03000  2939.10000   0.
    84.56000  2939.10000   0.
     3.42000  2957.55000   0.
     8.97000  2954.51000   0.
    14.52000  2951.86000   0.
    20.07000  2949.38000   0.
    25.63000  2946.59000   0.
    31.18000  2943.67000   0.
    36.73000  2940.99000   0.
    42.28000  2938.62000   0.
    47.83000  2936.87000   0.
    53.39000  2935.46000   0.
    58.94000  2933.69000   0.
    64.49000  2931.95000   0.
    70.04000  2931.81000   0.
    75.60000  2931.36000   0.
    81.15000  2931.70000   0.
     0.51333  2967.60000   0.
     1.02667  2967.10000   0.
     2.05333  2966.03333   0.
     2.56667  2965.46667   0.
     3.59000  2964.63333   0.
     4.10000  2964.36667   0.
     5.12333  2963.83333   0.
     5.63667  2963.56667   0.
     6.66333  2963.06667   0.
     7.17667  2962.83333   0.
     8.20333  2962.23333   0.
     8.71667  2961.86667   0.
     9.74000  2961.23333   0.
    10.25000  2960.96667   0.
    11.27333  2960.46667   0.
    11.78667  2960.23333   0.
    12.81333  2959.76667   0.
    13.32667  2959.53333   0.
    14.35333  2959.10000   0.
    14.86667  2958.90000   0.
    15.89000  2958.50000   0.
    16.40000  2958.30000   0.
    17.42333  2957.83333   0.
    17.93667  2957.56667   0.
    18.96333  2957.06667   0.
    19.47667  2956.83333   0.
    20.50000  2956.33333   0.
    21.01000  2956.06667   0.
    22.03333  2955.53333   0.
    22.54667  2955.26667   0.
    23.57333  2954.76667   0.
    24.08667  2954.53333   0.
    25.11333  2954.03333   0.
    25.62667  2953.76667   0.
    26.65333  2953.26667   0.
    27.16667  2953.03333   0.
    28.19000  2952.50000   0.
    28.70000  2952.20000   0.
    29.72333  2951.63333   0.
    30.23667  2951.36667   0.
    31.26333  2950.80000   0.
    31.77667  2950.50000   0.
    32.80333  2949.96667   0.
    33.31667  2949.73333   0.
    34.34000  2949.23333   0.
    34.85000  2948.96667   0.
    35.87333  2948.50000   0.
    36.38667  2948.30000   0.
    37.41333  2947.83333   0.
    37.92667  2947.56667   0.
    38.95333  2947.10000   0.
    39.46667  2946.90000   0.
    40.49000  2946.50000   0.
    41.00000  2946.30000   0.
    42.02333  2945.90000   0.
    42.53667  2945.70000   0.
    43.56333  2945.36667   0.
    44.07667  2945.23333   0.
    45.10333  2944.90000   0.
    45.61667  2944.70000   0.
    46.64000  2944.36667   0.
    47.15000  2944.23333   0.
    48.17333  2943.93333   0.
    48.68667  2943.76667   0.
    49.71333  2943.53333   0.
    50.22667  2943.46667   0.
    51.25333  2943.26667   0.
    51.76667  2943.13333   0.
    52.79000  2942.83333   0.
    53.30000  2942.66667   0.
    54.32333  2942.36667   0.
    54.83667  2942.23333   0.
    55.86333  2941.93333   0.
    56.37667  2941.76667   0.
    57.40333  2941.40000   0.
    57.91667  2941.20000   0.
    58.94000  2940.86667   0.
    59.45000  2940.73333   0.
    60.47333  2940.43333   0.
    60.98667  2940.26667   0.
    62.01333  2939.90000   0.
    62.52667  2939.70000   0.
    63.55333  2939.36667   0.
    64.06667  2939.23333   0.
    65.34500  2939.15000   0.
    66.88000  2939.20000   0.
    68.42000  2939.15000   0.
    69.70333  2939.03333   0.
    70.21667  2938.96667   0.
    71.24000  2938.80000   0.
    71.75000  2938.70000   0.
    72.77333  2938.50000   0.
    73.28667  2938.40000   0.
    74.31333  2938.36667   0.
    74.82667  2938.43333   0.
    75.85333  2938.56667   0.
    76.36667  2938.63333   0.
    77.64500  2938.65000   0.
    78.92333  2938.66667   0.
    79.43667  2938.73333   0.
    80.72000  2938.85000   0.
    82.00333  2938.96667   0.
    82.51667  2939.03333   0.
    83.79500  2939.10000   0.
     0.08400  2959.57200   0.
     1.19600  2958.89800   0.
     2.30800  2958.22400   0.
     4.53000  2956.94200   0.
     5.64000  2956.33400   0.
     6.75000  2955.72600   0.
     7.86000  2955.11800   0.
    10.35750  2953.84750   0.
    11.74500  2953.18500   0.
    13.13250  2952.52250   0.
    15.90750  2951.24000   0.
    17.29500  2950.62000   0.
    18.68250  2950.00000   0.
    21.18200  2948.82200   0.
    22.29400  2948.26400   0.
    23.40600  2947.70600   0.
    24.51800  2947.14800   0.
    26.74000  2946.00600   0.
    27.85000  2945.42200   0.
    28.96000  2944.83800   0.
    30.07000  2944.25400   0.
    32.56750  2943.00000   0.
    33.95500  2942.33000   0.
    35.34250  2941.66000   0.
    38.11750  2940.39750   0.
    39.50500  2939.80500   0.
    40.89250  2939.21250   0.
    43.66750  2938.18250   0.
    45.05500  2937.74500   0.
    46.44250  2937.30750   0.
    49.22000  2936.51750   0.
    50.61000  2936.16500   0.
    52.00000  2935.81250   0.
    54.77750  2935.01750   0.
    56.16500  2934.57500   0.
    57.55250  2934.13250   0.
    60.32750  2933.25500   0.
    61.71500  2932.82000   0.
    63.10250  2932.38500   0.
    65.87750  2931.91500   0.
    67.26500  2931.88000   0.
    68.65250  2931.84500   0.
    71.43000  2931.69750   0.
    72.82000  2931.58500   0.
    74.21000  2931.47250   0.
    76.98750  2931.44500   0.
    78.37500  2931.53000   0.
    79.76250  2931.61500   0.
    82.53750  2931.75500   0.
    83.92500  2931.81000   0.
     6.60134  2937.05984   0.
    20.80435  2932.52560   0.
     3.78758  2946.36592   0.
    15.48523  2940.98228   0.
    29.30091  2934.50364   0.
    23.90594  2939.46561   0.
    40.87322  2931.62711   0.
     1.03219  2951.87344   0.
    10.83406  2946.32292   0.
    20.42668  2943.42459   0.
    48.80952  2930.83467   0.
    35.50309  2935.49258   0.
     7.54365  2949.73854   0.
    28.57967  2939.84283   0.
    15.90963  2945.83181   0.
    44.30452  2933.27820   0.
    -0.12722  2955.42655   0.
    24.47411  2943.04615   0.
     4.45051  2952.86019   0.
    40.01017  2935.22543   0.
    52.75593  2931.58993   0.
    13.75183  2934.27842   0.
    32.31862  2938.44653   0.
     0.40990  2931.04902   0.
    19.20708  2946.27332   0.
    57.19103  2930.55709   0.
    -0.97178  2947.27328   0.
    19.39705  2939.49643   0.
    11.08068  2950.12444   0.
    32.86215  2930.47012   0.
     7.41320  2941.82707   0.
    13.76382  2948.77946   0.
    27.17579  2942.79365   0.
     7.27112  2952.68663   0.
     2.71547  2954.94653   0.
    22.91159  2945.17994   0.
     2.00816  2941.86911   0.
    24.73355  2934.79062   0.
    47.86753  2934.00196   0.
    50.62083  2933.29089   0.
    60.15732  2930.28185   0.
    37.65425  2937.53830   0.
    44.64836  2929.77041   0.
    10.93416  2939.02064   0.
     4.26476  2949.76242   0.
    36.78915  2931.78219   0.
     7.36345  2946.13476   0.
    30.92470  2941.06806   0.
     6.19921  2931.10091   0.
    35.16618  2938.51604   0.
    16.36294  2929.87801   0.
    13.43632  2943.77014   0.
    42.64967  2935.50406   0.
    26.89596  2931.23775   0.
     1.59760  2936.73753   0.
    17.19200  2948.13905   0.
    -0.61497  2957.60981   0.
    26.49360  2937.36117   0.
     9.56799  2951.50953   0.
    17.55858  2943.77119   0.
    55.26825  2932.33039   0.
    22.03247  2936.46128   0.
    16.10828  2937.24515   0.
    22.48452  2941.40733   0.
    20.86327  2946.43955   0.
    29.71126  2937.35408   0.
    32.14062  2935.59882   0.
    45.26358  2935.44707   0.
    29.19256  2942.39482   0.
    25.22337  2944.48902   0.
    25.77440  2940.40763   0.
     5.12787  2951.33100   0.
     9.72036  2943.07255   0.
     0.63027  2944.64860   0.
     5.15669  2954.13690   0.
    33.80274  2940.56791   0.
     1.57076  2956.41210   0.
     9.31000  2947.97928   0.
     9.87726  2933.53233   0.
    53.60824  2932.85261   0.
    40.63972  2936.89193   0.
    13.47285  2946.23828   0.
    37.68088  2934.75035   0.
    46.32767  2931.88185   0.
    18.64740  2941.16071   0.
    13.09413  2950.32980   0.
    18.01744  2935.92389   0.
     0.55332  2948.73049   0.
     5.35766  2947.55011   0.
    42.44669  2933.52960   0.
    57.75733  2932.24094   0.
    23.68300  2931.83870   0.
    19.94397  2947.74183   0.
    61.81887  2931.15328   0.
[...]
POINT_DATA      1414
CELL_DATA      2568
SCALARS Resistivity(ohm.m) double 1
LOOKUP_TABLE default
          1213.83371          1814.64256          2157.59450          1170.21019           490.67111          2131.26544          1267.99015          1472.33836          1696.02601          2053.39075           725.62591          2020.15577           555.41470          2329.59282          2316.13571          1881.53434          1642.87341           440.41153           497.59429          2255.85404          1169.99907          1924.09103          1332.53710           606.61091          1929.15315           491.54941           250.93439          2131.67226          2276.75060          2140.51664           512.07149           498.93023          1735.81155           421.31965           367.47369          1656.50989           679.24189           987.64688          1283.58762          1538.97333          1876.84466           637.92959           480.86466          2380.66645           337.68871           432.77038          2952.63024           788.00769           577.40756           859.01834          2485.77202          1923.83404           990.88941          1636.66365          2141.47407           954.72142           365.15779          2124.50730           460.08215          1085.23274           498.73315          2180.59027           431.81457          1863.54494           257.92339          1597.51407          2113.15728          2026.47031           286.59670           765.71952           475.48778           715.25480          2123.36689           408.49111           307.72609          2997.93337          1500.41984           443.33281           325.38062          2747.51559          2562.00578          1412.39948           440.67539           443.47053          2106.04491           838.03632           338.16903          2166.28133           789.30914          1937.76639          1097.56153           368.02613          2127.92400           349.63409          1752.60402          2069.47402           536.89145          1242.25853          2233.86751          1048.43376          1623.64857           527.21539           638.09724           667.31797          1003.20099          1747.21947           496.31736           917.44589          2053.33656          1332.93780           373.70291          1050.29154          2586.07284          1856.86543          2097.06576          1336.30766           958.25826          1574.95181           469.94652           317.43385          2190.87239          1466.76308          3046.25850           721.10904           510.33462          2087.83255          2477.18311          3310.85643          1858.82698          1396.86872          2067.12927          1158.81022          1274.85228          2268.20301           799.47399          2900.73600           369.18772          1722.97247          1060.70008          1390.38122          1670.92704           508.78655           626.55226          1302.56920          1721.04263           560.84478           479.05200          1546.91088          1997.88753           538.41120          2146.96045          1981.64518           918.31918           638.00206          2220.23888           279.66357          1602.38503           418.78665          2285.59003          1324.35328          1169.19342           518.27658          2387.90802           488.32397          2119.84996           497.40507          1426.25568          1787.18285          1976.40348          1791.35451           655.66091           746.50971           702.94967           267.37452           425.87446           843.05713           853.95305          3611.83070          2720.41096          1157.39718          2175.17786          1394.98747          2024.44068           738.70638           514.10166          1019.59961           913.42042           670.70401           785.08818          2493.83727          1262.03920          2414.56003           625.01300          2620.56256           264.29792           534.21934          2534.43297          2066.41677          1295.14099           436.12647           279.17316           739.25167          1840.05257          1497.97681          1781.51586          1102.03050          3900.05973          2152.96188           406.12598          2129.98690          1371.98358           589.69174           440.39053           337.29754           586.18080          1251.20887          2388.88644           476.85723          1301.92506           538.68746           785.50092          1368.13085          1142.67319           343.86801           602.83711           678.55292           373.49597           574.48070          1309.91658           321.62411           965.08630          1978.21394          1481.67389          3011.20655          2275.95766          1665.94665          2329.22554          1428.93705          1441.04715          1434.86312          2596.23451           603.25796          1014.97862           419.42399          2424.04562           260.00035          1914.31500           494.52732           429.23543          2091.07507           251.17933          1980.65997          1746.29781           712.62857          2036.92756           975.59904           597.48004           747.66258           667.20504          2944.82467           519.91674          2117.19869           472.45211           450.68685           467.90174          1662.77874           361.93440          2134.61652           954.91820          2165.21148           912.27772          2049.10860          2482.65661          2149.23079           456.82882          1688.72183          2117.43222           451.47647           646.74379           604.70605           453.12716          1427.07959           272.18591           946.28701           849.48492          2164.14097           494.39073          2286.62052           576.49065           456.15134           840.79632           300.93067          2274.40166           689.92186          1994.91226          2165.71253          1491.07752           540.72834           458.11566           669.37475           929.15708           466.80188          2384.00261          2578.82331           421.23254          1882.82000          1362.43648          1592.97508          2006.97711           373.68514           722.20425           532.51664           289.57802          2147.76233           705.43359           331.55368           492.29799          1079.29897          2820.90720           462.95109          3340.74240           392.79068           936.18270           439.78980           562.14251          1259.52609           481.67856          1427.06436          1105.06732          2898.91817          1834.00133          2116.58325           530.83210          1613.15599           345.22975           406.41387           616.87244           570.66607          3232.41367           565.45355          2162.58503           401.11605          2101.56322           465.26105           575.91851          1864.94457          1227.67668          1063.38225           478.14038          2146.80298           437.86719          2484.27789           810.59276           367.45980           486.51021          2107.06253           504.40079          1634.11317           316.82470           397.15829           740.51064          1558.39501           849.44403           542.09090          1399.62591           509.55316           356.20940          2189.46059          1800.56174          2707.20799           443.04334          1340.58374          1469.76281           915.10910           287.50798          2681.94847           409.60621           470.77105           435.20281          2071.69258          1423.37335           416.64066          1833.89737          2340.13041           258.81371          1386.47964           534.27362          1353.03156           462.33416          1533.99401           736.69603           336.49724          1472.32271          1355.98574           417.44568           736.85110           591.60446          1299.93937          1790.34475           969.30739           510.22930           652.09923          1415.93072          1466.44416          1381.44344           890.84095           512.75092           982.16251          2143.05885          1711.67588          1566.36226          2202.38192           944.33789           619.30413          1063.78615          2356.46511           626.10665           868.57340           647.84964          1788.17128           919.11177           388.81217          2176.59539          1452.80986          1343.55039           275.57792          1606.63921           522.40272          1453.48405           485.03125          1397.61083           467.92513           413.78091          1882.78663          1059.95068          1535.08449          1568.95358           592.52778          1955.99303          1245.19400          3635.91134           601.82098          1243.11506          2001.05833          1207.35893          1103.87786          1317.11255          1273.53095          4158.31163           879.95881          3384.94736          1636.25715          1471.73145          1143.81134          1665.72739           825.24611          2212.55470           961.83048          1381.96891           436.12283          1944.60392          1399.01756           919.77808          1288.02572          2111.43835           835.60937           787.78292          1133.72722          1687.71892          1713.36785           753.84865          1875.37872           879.53780           276.62412          1962.93850          3892.21915          1002.65798           436.54754          1528.07292           686.24087           999.52329          1888.85002           532.33680           533.91829          2092.61206          2679.74973          1221.81800           349.32892           643.90017           765.09702          1349.22641          1100.55380          1127.80752          1547.06589           824.28285          1492.65921           782.03783          1100.53794          2595.98073          1864.04587           609.84837           318.06793           540.54008          1330.70476           784.78835          1274.24469          3659.48163          1331.37024           365.01089           504.92168          1249.26630          1265.51362           863.78375           413.53740          3219.85099          1414.88769           374.82888          3339.11494          2223.04378           427.86620          1464.84333          1317.57138          1137.32618          1171.61564          1134.06266           570.45642          1622.06626          1471.31077          1498.34528          1245.41789           718.22090          1760.01101           441.00773          1155.35597           603.54470           432.44765           734.58327          1781.18773          1165.52471           979.15129           440.12106           399.83088          1768.58940          1215.29243          3867.80806          4332.32212          3328.21742          2164.95431          2028.32257          2068.86934          3348.59569          4563.63270           643.09231          4498.86416           424.00399          1098.44216          1508.78903           664.18398          3450.47498          4603.37922          1207.95048           434.74967          2080.53655          2620.27188           802.36077           863.82851          1399.00889          4718.70161          1381.53486          2442.36956           929.34762           626.77303          1377.52195          1509.57673           445.38747          3494.53906           531.04194          1318.32873          4740.32071          4328.00213          1703.91290          4912.28003           290.48140           877.82104           503.61708          1776.98836          2623.61493          1849.84268          2942.08401          1877.00988          2524.68442           791.56982          1666.88233          1320.35923          1811.94096          7270.13309          3725.47441          1040.99542          5068.39548          3787.40596           744.92262           674.39545          4489.79790          2720.71357          4778.93290          4745.91790          1401.33020           905.42154           656.73899           511.18459           828.58642          4170.14324          1716.26152          1033.72772          1600.72289           332.90271          1033.99063          1935.06286          3660.07935          1039.44407           866.67348           702.33334           812.87307          1478.06920          1438.85484           857.05379          3154.08485          2867.02230          3370.86235          3041.44005          6088.39644          3796.06454          2546.46467           627.31159          4213.19727          1242.62842          1671.67887           656.78379          1342.79721           895.80283           378.64589          5802.05648          5074.99247          1508.84301          1613.91774          2710.27744          2419.18241          3173.55852          2961.70637           947.66410          1245.97017           555.59270           777.74078           449.15453           540.79451           770.24176           618.10560          2062.07839          3742.19021          3126.74466          1530.98805          2162.69758          1545.11990          1524.57018          7352.87625          4992.14233          1846.96144           465.12639           587.53518          4671.34072           697.76291          3728.82174          4233.55886          1018.53345          2240.20767           674.81975           914.81361          1026.35609          2227.83983          2295.35331          2875.29735           617.28195           564.81417          1076.10658           352.89545           589.56761           431.45459          3649.64829          4984.92920           455.21303          2911.46312           878.17054          2543.10988          1123.76298           668.78947           635.72062           742.88381           642.38701          1962.93004           764.33621          1359.93576           705.32310          2436.42710          1774.02962          3979.05404          2615.79166           641.66969           533.07511           331.44555          2842.57430           710.84839           738.82015          1427.50173          2751.85536           702.64938           864.73797           509.29496          1405.67955           911.64791          1692.83994          1402.28954           592.96321           693.04957           707.50181          2539.63369          1962.54223          1132.42139          6869.33608          1026.48765           942.48326           985.52401          1535.85699          2439.84998          1531.05869          1501.38254          1683.70267          2661.77943           623.92436          6573.74772          1317.98652          2615.82496           855.08716          1086.82949          3939.22013          2520.81201           751.07204          1203.51409          3363.15450           468.35695           494.13994          1178.17973          2707.65624          5143.31787          1454.35461          6673.15312          1410.65494          1711.74218          1523.73773          1097.25040           448.71974           829.16379          2672.48019           673.05406          4030.85697           624.13612          3360.48891           822.76608           726.94565          1394.80635          1886.39997          2844.50099          4379.27120          2645.07292          1358.15414          1783.52410          1347.00716          5309.33277          6804.76484          1908.70332          1003.90090          2990.57320           608.20453          1060.25608           838.56121          2679.95877          1063.78119           951.73416           585.66891           593.38000          3497.59203          1116.82763           820.12241          5368.21235          3481.05127          2360.39985          1325.28323          6919.70430           787.16564          2602.59160          2988.39157          2296.31547          1236.09944          2871.67563          4854.39589          1807.44630           413.44009           712.51795           932.98930          1718.14709          1786.52244           686.45703           713.72853          5805.18587           813.50743          1116.76664          1884.60306          4178.50052          4280.24151           471.56401          1447.22922           864.88115          1168.32850          1818.48103           754.28027           884.79678          1558.73998           802.11893           616.03505           448.66373           751.00583          2910.54992           509.79664          2909.23230          1762.97363          1929.11304          1326.36931          1744.10712          1556.36173           467.65343          3593.49874          1492.36099          1874.67622          2032.42363          2089.60907          4355.45616           797.28910          5609.35486           538.94999           725.80166          1650.60203          1069.71784          6953.74862          2519.91663           919.13289          1600.04415          3503.86194          3345.70817           639.90826          5052.93250          1409.73544          2801.01303          1050.63589          3227.24190          3584.21156           517.81636          3292.13335          3500.43471          2431.76729          4759.79940           887.38521           750.54512          1068.16672          2210.83750           440.24456          9398.94770          3695.15038           638.16264          1608.95637          1766.37599          2088.52290           803.21442          1067.81693         12217.99985           692.83594          2255.07402          1232.43959           494.25165           791.12358          2612.93356          5711.61935          5693.82004          1760.88431          2526.88638          2570.41690          4555.88347           713.19603          1399.54811          2056.24905          1834.22027          4846.03511           570.78740          1064.75339          2950.06473           840.43040          4108.54998          2408.58155          6668.08605          2447.77619          1126.37836          1106.55967           604.58389          4467.17108          6947.49684          1780.65134           310.33111           414.85852           774.90484           833.37242          6050.92968          1273.13509          2182.39955          3025.65408          2414.29973          5457.93812          5104.49616           362.02834           594.16142           787.67168          1187.78368           683.67763          4041.15663          3724.83055          1277.84180           679.25265          1017.97371          2044.38857          3658.10694          2299.99196          2180.00954           953.77822          4027.68234          6829.79389           459.33989           663.58381          1691.12210          7226.34632          1869.85211          2634.55455          4696.08431           698.81650          1837.09396          4314.70219           515.62536          1471.16774          1003.02576          5632.95809           961.73773          1708.86918          2671.29801          4788.37693          4597.06630          5964.24824          4100.14308          4263.50771          1831.26000           875.93789          3096.88306          9677.43998           644.55324          2616.21910          2662.10925           274.00568          2515.22466          3381.58712          2548.92911           443.28146          3852.98965           800.40205          3403.24913          4458.14198          1846.61584           784.96610          3174.72676          3294.66729          4530.45930          5858.29201          5538.06738           667.88303           629.64831          1319.80195          4414.18509          1006.52984          2890.83427           924.33134           619.917