# vtk DataFile Version 3.0
Output from R2
ASCII
DATASET UNSTRUCTURED_GRID
POINTS       1414 double
     0.00000  2968.10000   0.
     1.54000  2966.60000   0.
     3.08000  2964.90000   0.
     4.61000  2964.10000   0.
     6.15000  2963.30000   0.
     7.69000  2962.60000   0.
     9.23000  2961.50000   0.
    10.76000  2960.70000   0.
    12.30000  2960.00000   0.
    13.84000  2959.30000   0.
    15.38000  2958.70000   0.
    16.91000  2958.10000   0.
    18.45000  2957.30000   0.
    19.99000  2956.60000   0.
    21.52000  2955.80000   0.
    23.06000  2955.00000   0.
    24.60000  2954.30000   0.
    26.14000  2953.50000   0.
    27.68000  2952.80000   0.
    29.21000  2951.90000   0.
    30.75000  2951.10000   0.
    32.29000  2950.20000   0.
    33.83000  2949.50000   0.
    35.36000  2948.70000   0.
    36.90000  2948.10000   0.
    38.44000  2947.30000   0.
    39.98000  2946.70000   0.
    41.51000  2946.10000   0.
    43.05000  2945.50000   0.
    44.59000  2945.10000   0.
    46.13000  2944.50000   0.
    47.66000  2944.10000   0.
    49.20000  2943.60000   0.
    50.74000  2943.40000   0.
    52.28000  2943.00000   0.
    53.81000  2942.50000   0.
    55.35000  2942.10000   0.
    56.89000  2941.60000   0.
    58.43000  2941.00000   0.
    59.96000  2940.60000   0.
    61.50000  2940.10000   0.
    63.04000  2939.50000   0.
    64.58000  2939.10000   0.
    66.11000  2939.20000   0.
    67.65000  2939.20000   0.
    69.19000  2939.10000   0.
    70.73000  2938.90000   0.
    72.26000  2938.60000   0.
    73.80000  2938.30000   0.
    75.34000  2938.50000   0.
    76.88000  2938.70000   0.
    78.41000  2938.60000   0.
    79.95000  2938.80000   0.
    81.49000  2938.90000   0.
    83.03000  2939.10000   0.
    84.56000  2939.10000   0.
     3.42000  2957.55000   0.
     8.97000  2954.51000   0.
    14.52000  2951.86000   0.
    20.07000  2949.38000   0.
    25.63000  2946.59000   0.
    31.18000  2943.67000   0.
    36.73000  2940.99000   0.
    42.28000  2938.62000   0.
    47.83000  2936.87000   0.
    53.39000  2935.46000   0.
    58.94000  2933.69000   0.
    64.49000  2931.95000   0.
    70.04000  2931.81000   0.
    75.60000  2931.36000   0.
    81.15000  2931.70000   0.
     0.51333  2967.60000   0.
     1.02667  2967.10000   0.
     2.05333  2966.03333   0.
     2.56667  2965.46667   0.
     3.59000  2964.63333   0.
     4.10000  2964.36667   0.
     5.12333  2963.83333   0.
     5.63667  2963.56667   0.
     6.66333  2963.06667   0.
     7.17667  2962.83333   0.
     8.20333  2962.23333   0.
     8.71667  2961.86667   0.
     9.74000  2961.23333   0.
    10.25000  2960.96667   0.
    11.27333  2960.46667   0.
    11.78667  2960.23333   0.
    12.81333  2959.76667   0.
    13.32667  2959.53333   0.
    14.35333  2959.10000   0.
    14.86667  2958.90000   0.
    15.89000  2958.50000   0.
    16.40000  2958.30000   0.
    17.42333  2957.83333   0.
    17.93667  2957.56667   0.
    18.96333  2957.06667   0.
    19.47667  2956.83333   0.
    20.50000  2956.33333   0.
    21.01000  2956.06667   0.
    22.03333  2955.53333   0.
    22.54667  2955.26667   0.
    23.57333  2954.76667   0.
    24.08667  2954.53333   0.
    25.11333  2954.03333   0.
    25.62667  2953.76667   0.
    26.65333  2953.26667   0.
    27.16667  2953.03333   0.
    28.19000  2952.50000   0.
    28.70000  2952.20000   0.
    29.72333  2951.63333   0.
    30.23667  2951.36667   0.
    31.26333  2950.80000   0.
    31.77667  2950.50000   0.
    32.80333  2949.96667   0.
    33.31667  2949.73333   0.
    34.34000  2949.23333   0.
    34.85000  2948.96667   0.
    35.87333  2948.50000   0.
    36.38667  2948.30000   0.
    37.41333  2947.83333   0.
    37.92667  2947.56667   0.
    38.95333  2947.10000   0.
    39.46667  2946.90000   0.
    40.49000  2946.50000   0.
    41.00000  2946.30000   0.
    42.02333  2945.90000   0.
    42.53667  2945.70000   0.
    43.56333  2945.36667   0.
    44.07667  2945.23333   0.
    45.10333  2944.90000   0.
    45.61667  2944.70000   0.
    46.64000  2944.36667   0.
    47.15000  2944.23333   0.
    48.17333  2943.93333   0.
    48.68667  2943.76667   0.
    49.71333  2943.53333   0.
    50.22667  2943.46667   0.
    51.25333  2943.26667   0.
    51.76667  2943.13333   0.
    52.79000  2942.83333   0.
    53.30000  2942.66667   0.
    54.32333  2942.36667   0.
    54.83667  2942.23333   0.
    55.86333  2941.93333   0.
    56.37667  2941.76667   0.
    57.40333  2941.40000   0.
    57.91667  2941.20000   0.
    58.94000  2940.86667   0.
    59.45000  2940.73333   0.
    60.47333  2940.43333   0.
    60.98667  2940.26667   0.
    62.01333  2939.90000   0.
    62.52667  2939.70000   0.
    63.55333  2939.36667   0.
    64.06667  2939.23333   0.
    65.34500  2939.15000   0.
    66.88000  2939.20000   0.
    68.42000  2939.15000   0.
    69.70333  2939.03333   0.
    70.21667  2938.96667   0.
    71.24000  2938.80000   0.
    71.75000  2938.70000   0.
    72.77333  2938.50000   0.
    73.28667  2938.40000   0.
    74.31333  2938.36667   0.
    74.82667  2938.43333   0.
    75.85333  2938.56667   0.
    76.36667  2938.63333   0.
    77.64500  2938.65000   0.
    78.92333  2938.66667   0.
    79.43667  2938.73333   0.
    80.72000  2938.85000   0.
    82.00333  2938.96667   0.
    82.51667  2939.03333   0.
    83.79500  2939.10000   0.
     0.08400  2959.57200   0.
     1.19600  2958.89800   0.
     2.30800  2958.22400   0.
     4.53000  2956.94200   0.
     5.64000  2956.33400   0.
     6.75000  2955.72600   0.
     7.86000  2955.11800   0.
    10.35750  2953.84750   0.
    11.74500  2953.18500   0.
    13.13250  2952.52250   0.
    15.90750  2951.24000   0.
    17.29500  2950.62000   0.
    18.68250  2950.00000   0.
    21.18200  2948.82200   0.
    22.29400  2948.26400   0.
    23.40600  2947.70600   0.
    24.51800  2947.14800   0.
    26.74000  2946.00600   0.
    27.85000  2945.42200   0.
    28.96000  2944.83800   0.
    30.07000  2944.25400   0.
    32.56750  2943.00000   0.
    33.95500  2942.33000   0.
    35.34250  2941.66000   0.
    38.11750  2940.39750   0.
    39.50500  2939.80500   0.
    40.89250  2939.21250   0.
    43.66750  2938.18250   0.
    45.05500  2937.74500   0.
    46.44250  2937.30750   0.
    49.22000  2936.51750   0.
    50.61000  2936.16500   0.
    52.00000  2935.81250   0.
    54.77750  2935.01750   0.
    56.16500  2934.57500   0.
    57.55250  2934.13250   0.
    60.32750  2933.25500   0.
    61.71500  2932.82000   0.
    63.10250  2932.38500   0.
    65.87750  2931.91500   0.
    67.26500  2931.88000   0.
    68.65250  2931.84500   0.
    71.43000  2931.69750   0.
    72.82000  2931.58500   0.
    74.21000  2931.47250   0.
    76.98750  2931.44500   0.
    78.37500  2931.53000   0.
    79.76250  2931.61500   0.
    82.53750  2931.75500   0.
    83.92500  2931.81000   0.
     6.60134  2937.05984   0.
    20.80435  2932.52560   0.
     3.78758  2946.36592   0.
    15.48523  2940.98228   0.
    29.30091  2934.50364   0.
    23.90594  2939.46561   0.
    40.87322  2931.62711   0.
     1.03219  2951.87344   0.
    10.83406  2946.32292   0.
    20.42668  2943.42459   0.
    48.80952  2930.83467   0.
    35.50309  2935.49258   0.
     7.54365  2949.73854   0.
    28.57967  2939.84283   0.
    15.90963  2945.83181   0.
    44.30452  2933.27820   0.
    -0.12722  2955.42655   0.
    24.47411  2943.04615   0.
     4.45051  2952.86019   0.
    40.01017  2935.22543   0.
    52.75593  2931.58993   0.
    13.75183  2934.27842   0.
    32.31862  2938.44653   0.
     0.40990  2931.04902   0.
    19.20708  2946.27332   0.
    57.19103  2930.55709   0.
    -0.97178  2947.27328   0.
    19.39705  2939.49643   0.
    11.08068  2950.12444   0.
    32.86215  2930.47012   0.
     7.41320  2941.82707   0.
    13.76382  2948.77946   0.
    27.17579  2942.79365   0.
     7.27112  2952.68663   0.
     2.71547  2954.94653   0.
    22.91159  2945.17994   0.
     2.00816  2941.86911   0.
    24.73355  2934.79062   0.
    47.86753  2934.00196   0.
    50.62083  2933.29089   0.
    60.15732  2930.28185   0.
    37.65425  2937.53830   0.
    44.64836  2929.77041   0.
    10.93416  2939.02064   0.
     4.26476  2949.76242   0.
    36.78915  2931.78219   0.
     7.36345  2946.13476   0.
    30.92470  2941.06806   0.
     6.19921  2931.10091   0.
    35.16618  2938.51604   0.
    16.36294  2929.87801   0.
    13.43632  2943.77014   0.
    42.64967  2935.50406   0.
    26.89596  2931.23775   0.
     1.59760  2936.73753   0.
    17.19200  2948.13905   0.
    -0.61497  2957.60981   0.
    26.49360  2937.36117   0.
     9.56799  2951.50953   0.
    17.55858  2943.77119   0.
    55.26825  2932.33039   0.
    22.03247  2936.46128   0.
    16.10828  2937.24515   0.
    22.48452  2941.40733   0.
    20.86327  2946.43955   0.
    29.71126  2937.35408   0.
    32.14062  2935.59882   0.
    45.26358  2935.44707   0.
    29.19256  2942.39482   0.
    25.22337  2944.48902   0.
    25.77440  2940.40763   0.
     5.12787  2951.33100   0.
     9.72036  2943.07255   0.
     0.63027  2944.64860   0.
     5.15669  2954.13690   0.
    33.80274  2940.56791   0.
     1.57076  2956.41210   0.
     9.31000  2947.97928   0.
     9.87726  2933.53233   0.
    53.60824  2932.85261   0.
    40.63972  2936.89193   0.
    13.47285  2946.23828   0.
    37.68088  2934.75035   0.
    46.32767  2931.88185   0.
    18.64740  2941.16071   0.
    13.09413  2950.32980   0.
    18.01744  2935.92389   0.
     0.55332  2948.73049   0.
     5.35766  2947.55011   0.
    42.44669  2933.52960   0.
    57.75733  2932.24094   0.
    23.68300  2931.83870   0.
    19.94397  2947.74183   0.
    61.81887  2931.15328   0.
[...]
POINT_DATA      1414
CELL_DATA      2568
SCALARS Resistivity(ohm.m) double 1
LOOKUP_TABLE default
          1230.28750          1791.96099          2258.23768          1179.65434           511.29419          2239.39300          1293.35727          1491.39695          1640.74310          2036.62360           778.42742          1980.16847           576.05955          2359.65840          2306.18488          1830.13837          1607.89979           447.48693           481.40803          2383.50421          1201.90650          1887.85135          1320.88114           585.58328          1904.28356           500.09995           253.99184          2224.70996          2171.97309          2208.87159           499.78300           508.13566          1708.46898           410.74921           341.11384          1605.12952           676.33544          1013.05354          1271.30614          1507.14816          1805.56780           667.15479           445.80488          2301.09438           316.13333           428.94649          3006.00401           847.93743           593.35550           893.74714          2628.42097          1884.86140          1075.40262          1596.10553          2079.92859           965.42841           336.64098          2196.21240           447.39250          1165.82652           525.69063          2183.02111           438.00266          1827.96711           258.13647          1550.61797          2168.88312          2017.43794           272.43499           723.67490           486.45272           734.04788          2067.67781           374.74183           298.94000          2850.10166          1506.89593           447.35064           318.42289          2832.63962          2687.73525          1456.87271           426.64734           440.36334          2095.92616           799.32366           314.35476          2069.80824           824.13218          1921.80973          1129.79314           343.16776          2227.78693           342.38049          1681.74256          2031.88280           529.43803          1313.38818          2214.03668          1070.61067          1608.96121           539.01692           640.87025           706.15066          1032.52066          1692.77714           507.18208           991.13031          1969.12682          1396.58100           364.50864          1117.69940          2469.88902          1837.86307          2021.61797          1311.94800          1027.48332          1544.68566           440.70230           296.83563          2320.10125          1466.30229          3014.53190           744.68599           507.35626          2121.69596          2362.79948          3235.03793          1833.02380          1415.28922          2089.76201          1157.17767          1256.82798          2321.91788           850.67880          2717.68278           363.05160          1676.69455          1069.74612          1361.83664          1646.10437           515.49966           622.09376          1340.41328          1688.34808           567.34243           464.54396          1531.75365          1990.54726           531.86092          2173.30404          1936.48833           978.83414           648.54422          2343.91925           273.15945          1616.45429           411.98310          2205.80380          1303.75590          1253.44623           516.59733          2252.63345           480.24045          2163.38449           532.74151          1422.81563          1731.43165          1896.17986          1756.76607           684.76953           785.09817           706.27799           257.65746           408.78531           922.55892           826.59240          3365.32887          2555.49013          1216.12934          2296.47701          1461.08375          2034.88862           750.71532           534.82900          1018.22905           892.10848           656.54611           853.98213          2501.93796          1246.70360          2456.98991           590.08041          2686.75596           259.10148           504.57292          2629.84730          2076.31643          1310.19564           411.51272           274.55628           781.18186          1819.26056          1468.82968          1739.94839          1107.74191          3603.23803          2122.31729           382.88632          2131.80006          1355.74297           599.51424           419.87608           313.26469           567.07872          1261.74653          2347.99823           485.20687          1328.28790           525.00613           836.55374          1418.38843          1189.57550           320.30897           627.56251           638.70958           365.53136           538.75757          1288.34072           321.24494          1057.71086          1896.53658          1472.91897          2783.27722          2411.57843          1674.79756          2462.06449          1493.41444          1483.63743          1424.68235          2607.90693           630.20530          1002.92105           385.79209          2508.83558           254.11769          1900.22944           490.98824           433.12851          2095.58685           250.00989          1914.35165          1741.13386           684.79359          2051.61450          1029.32892           603.53166           726.93393           694.72673          2704.48321           554.02469          2133.19419           473.68698           416.49318           454.95131          1675.46119           334.21525          2247.69015           931.71721          2174.62013          1003.20141          1997.94947          2338.97859          2250.67752           459.61810          1668.50170          2085.88558           453.70593           645.81088           614.24634           458.23301          1397.70154           262.22849           986.79722           928.34403          2274.13560           466.64537          2424.54853           603.27446           448.66562           912.75718           287.14466          2363.98530           644.25515          1994.20525          2293.79344          1515.27016           534.57228           421.14668           645.68527           979.51350           451.04114          2526.16813          2514.57230           410.33329          1827.62713          1342.08447          1567.19613          1935.26447           366.97985           685.11127           560.64885           277.55383          2269.23178           752.74943           312.17224           494.67187          1174.72936          2597.56085           469.40452          3111.06594           384.92314           933.04183           429.65528           539.76822          1250.43697           470.90631          1396.21282          1099.55425          2824.73405          1814.50570          2178.78923           490.92321          1633.55335           337.70607           390.15808           589.24447           589.88251          3053.64535           551.46901          2211.90840           399.50519          2148.83743           458.88090           574.48583          1819.03265          1287.87905          1130.13008           467.48693          2227.48182           439.74507          2451.72561           791.25827           350.06150           463.33919          2136.86212           498.27392          1643.44315           300.82087           371.62680           794.73710          1519.24463           921.67712           498.85429          1375.94540           467.46462           335.54215          2309.09597          1784.60280          2516.82506           447.61380          1317.53227          1448.93182           995.98860           286.27643          2639.99252           397.37494           475.89913           430.25829          2075.93068          1407.42712           418.49937          1773.27090          2446.28053           258.43043          1361.03370           557.69676          1427.97980           442.23892          1572.96996           689.62321           322.47589          1440.95584          1359.94772           412.68634           794.26989           545.12287          1364.63553          1747.66389          1060.42617           544.14686           604.42555          1417.09014          1431.56273          1390.77907           897.88441           514.95429           982.36382          2264.57908          1701.38234          1578.89412          2238.83221          1038.58637           597.53288          1112.86620          2493.36991           629.45336           844.19031           681.08423          1773.78287          1008.49799           369.19512          2255.30880          1502.34585          1373.20033           269.33592          1595.01421           551.14330          1428.75952           482.57291          1416.39398           469.65392           412.43876          1798.09263          1116.30557          1514.27162          1572.82992           613.26979          1898.25248          1306.94612          3434.74084           580.90689          1243.47804          1908.47102          1201.50957          1170.81550          1294.51807          1270.36599          3807.58222           875.09700          3231.34685          1628.72212          1516.12654          1218.21153          1652.96316           854.36655          2160.20688           952.59298          1446.49747           437.31183          1935.81554          1393.92795           907.72100          1370.59633          2152.96906           850.81118           857.50514          1231.43262          1647.37078          1707.72687           769.35247          1855.37292           920.50997           279.75332          1958.21363          3562.50959          1098.67744           424.28095          1571.09647           719.77166          1042.67072          1811.46342           507.51116           529.62381          2111.16882          2804.20029          1313.72649           336.30421           633.44426           796.08960          1343.30624          1197.75520          1120.58218          1505.96301           815.31438          1455.77739           780.37713          1146.20191          2418.85162          1837.16848           629.65211           306.01813           568.85496          1373.33993           793.10434          1320.44077          3333.07565          1339.25265           346.10601           483.31163          1338.28133          1299.74661           915.11659           383.74273          2966.52535          1384.63199           351.73817          3045.52101          2323.00469           428.21579          1481.72321          1317.13994          1151.55994          1263.52926          1161.22040           529.69174          1644.27938          1436.96127          1463.22491          1325.32194           704.96226          1748.83458           449.08525          1241.88149           558.21514           435.52569           730.44828          1764.30343          1200.31626           964.11150           446.64142           370.29966          1749.22246          1243.91288          3751.64248          3989.47331          3163.18024          2186.64815          2091.55613          2037.11077          3350.94339          4450.29792           652.14896          4316.83200           392.72687          1055.39955          1502.19687           643.70590          3329.81301          4768.25260          1319.39066           451.52552          2052.63474          2730.31601           787.10621           817.38317          1437.48009          4523.63905          1367.59819          2100.50835           889.41019           607.80009          1424.58429          1534.21658           460.20444          3585.11116           524.97350          1424.03823          4716.20351          4171.83134          1780.18272          4644.72582           293.28087           779.57961           495.46543          1950.22669          2769.32443          1810.22604          3002.91145          1834.80235          2537.38863           756.70748          1645.84633          1311.88509          1743.71673          7757.73762          3375.02678           916.05655          4812.64311          3739.67957           790.63462           679.77250          4753.89150          2589.64495          4563.21652          4512.32627          1460.26125           846.31116           628.71758           525.19759           788.21869          4241.76207          1692.28225           985.44394          1554.73923           328.39995          1088.76117          1808.63767          3296.77415          1035.86310           872.91970           656.65720           796.14674          1628.66036          1481.27297           840.81537          3090.12978          2758.04318          3427.12895          3215.20557          5850.53222          4051.65562          2509.54254           546.25979          3741.98052          1202.62987          1632.35824           621.29863          1401.36246           890.26518           367.30904          5679.84708          4931.45599          1505.68548          1609.45138          2855.06914          2214.82911          3197.14703          2662.06976           888.92959          1333.45451           578.56533           762.56834           398.76918           530.67905           773.77173           598.62370          2015.44187          4129.83855          3468.43460          1496.21828          2146.77915          1402.54339          1629.35159          7483.58272          4650.89153          1810.16166           418.66932           576.61677          4761.57515           666.38711          3813.37733          3960.69345          1048.66031          2369.10901           678.17161           867.94324          1050.25759          2361.29312          2460.24187          2627.15281           610.96915           485.59949          1207.53833           373.58679           619.57634           449.24604          3542.61040          4803.84986           468.66331          2811.30179           837.95791          2472.62142          1189.21363           641.43568           613.87985           660.91530           634.80490          1908.90483           728.77440          1432.82947           670.32488          2387.17307          1713.90619          3917.82189          2340.05624           616.38360           550.89321           339.46812          3006.26993           767.24030           734.08315          1332.16309          2664.14758           674.84868           852.68389           546.12038          1326.55950           942.53401          1628.20646          1376.84802           599.84848           741.47192           677.96047          2618.20992          1907.97052          1168.73348          7307.03481          1028.99450           955.36708           902.27996          1636.94181          2547.25510          1491.92808          1481.09928          1725.52564          2479.63565           647.05420          6010.68768          1328.23690          2744.29770           875.11987          1229.23546          3701.51033          2561.31325           737.57159          1150.63182          3212.28631           494.79644           534.46573          1287.35361          2441.80818          5208.11513          1413.38271          6557.10167          1352.74895          1678.84693          1501.30806          1171.61209           458.37449           778.53149          2807.61862           639.33960          3749.01579           611.18361          3090.40400           837.04552           674.80267          1456.61374          1874.25059          3022.85365          4601.97010          2552.23803          1386.43287          1845.40973          1367.94551          5143.58583          6756.83030          1831.93294           971.91683          2835.18570           614.30719          1160.17674           865.54930          2698.93051          1171.28375           960.62584           585.89415           592.10652          3483.20766          1071.56129           797.92891          5499.33206          3843.60663          2147.47320          1378.24748          6993.95324           820.74305          2419.51693          2782.76784          2297.90533          1202.41824          2737.09536          4991.24578          1788.83001           423.11615           690.55811           844.08503          1888.93396          1837.96852           673.97881           679.28302          5715.53358           749.45561          1137.65008          1914.83457          3870.10005          4784.57681           458.17553          1333.05419           834.94409          1045.93605          1966.85104           711.86439           829.02750          1453.10059           811.90986           596.67290           400.79260           768.50167          3080.95715           501.87935          3057.86336          1718.14794          1946.70481          1338.84869          1761.16003          1526.83518           407.79132          3922.63241          1545.50074          1821.09173          2014.47680          2151.08602          5002.68928           834.87949          5340.22349           580.71750           707.20882          1547.90722          1166.53623          6933.98873          2660.58613           929.34460          1714.63784          3955.81549          3063.55803           610.49577          4876.61956          1523.29084          2456.60131          1122.80336          3246.63202          3686.86619           509.06987          3290.21796          3602.66429          2584.79749          5394.64032           878.44821           721.12898          1156.42660          2329.50386           461.13087          8016.49980          3796.36676           614.85534          1620.70693          1780.69820          2170.66058           800.21407          1181.80317         13388.22699           633.80260          2224.31660          1341.83783           498.49963           766.15155          2551.38735          4841.22431          5815.84504          1495.68355          2473.95735          2478.47906          4208.37363           670.26902          1408.51150          2127.26513          1754.65864          5239.61200           591.55873          1165.74880          2676.66557           794.43769          3854.08575          2271.50149          6527.57039          2508.79417          1096.00454          1089.27392           592.78668          5211.86981          6882.92171          1928.48895           307.33639           384.34973           804.46476           801.75015          5815.94291          1298.18443          2039.05021          3128.67255          2321.82489          5253.25455          5431.99198           369.63235           615.78053           747.35374          1199.57977           648.54961          4079.30616          3622.99543          1415.95205           648.40781          1058.00604          2053.11588          3532.39909          2245.21628          2168.31590           919.20006          3762.88480          6420.60620           476.22721           667.39417          1672.88138          7544.00058          2008.37102          2497.78661          4622.94914           675.45747          1783.72944          4086.55600           529.37027          1442.05097           963.78503          5239.39330           917.40060          1644.32178          2699.80704          4858.03265          4557.05518          5711.69835          4107.32329          3931.71672          1715.54936           879.81037          3021.75413          8736.32683           625.52233          2602.87508          2548.59671           285.68738          2299.39667          3245.39490          2683.38750           421.88533          4134.43963           769.36339          3130.47802          4057.84751          1875.54689           779.30924          3124.17836          3381.43992          4802.74205          5601.99794          5252.99097           658.92429           631.50842          1312.01291          4499.47801          1069.22325          2534.35711           876.90903           599.423