# vtk DataFile Version 3.0
Output from R2
ASCII
DATASET UNSTRUCTURED_GRID
POINTS       1414 double
     0.00000  2968.10000   0.
     1.54000  2966.60000   0.
     3.08000  2964.90000   0.
     4.61000  2964.10000   0.
     6.15000  2963.30000   0.
     7.69000  2962.60000   0.
     9.23000  2961.50000   0.
    10.76000  2960.70000   0.
    12.30000  2960.00000   0.
    13.84000  2959.30000   0.
    15.38000  2958.70000   0.
    16.91000  2958.10000   0.
    18.45000  2957.30000   0.
    19.99000  2956.60000   0.
    21.52000  2955.80000   0.
    23.06000  2955.00000   0.
    24.60000  2954.30000   0.
    26.14000  2953.50000   0.
    27.68000  2952.80000   0.
    29.21000  2951.90000   0.
    30.75000  2951.10000   0.
    32.29000  2950.20000   0.
    33.83000  2949.50000   0.
    35.36000  2948.70000   0.
    36.90000  2948.10000   0.
    38.44000  2947.30000   0.
    39.98000  2946.70000   0.
    41.51000  2946.10000   0.
    43.05000  2945.50000   0.
    44.59000  2945.10000   0.
    46.13000  2944.50000   0.
    47.66000  2944.10000   0.
    49.20000  2943.60000   0.
    50.74000  2943.40000   0.
    52.28000  2943.00000   0.
    53.81000  2942.50000   0.
    55.35000  2942.10000   0.
    56.89000  2941.60000   0.
    58.43000  2941.00000   0.
    59.96000  2940.60000   0.
    61.50000  2940.10000   0.
    63.04000  2939.50000   0.
    64.58000  2939.10000   0.
    66.11000  2939.20000   0.
    67.65000  2939.20000   0.
    69.19000  2939.10000   0.
    70.73000  2938.90000   0.
    72.26000  2938.60000   0.
    73.80000  2938.30000   0.
    75.34000  2938.50000   0.
    76.88000  2938.70000   0.
    78.41000  2938.60000   0.
    79.95000  2938.80000   0.
    81.49000  2938.90000   0.
    83.03000  2939.10000   0.
    84.56000  2939.10000   0.
     3.42000  2957.55000   0.
     8.97000  2954.51000   0.
    14.52000  2951.86000   0.
    20.07000  2949.38000   0.
    25.63000  2946.59000   0.
    31.18000  2943.67000   0.
    36.73000  2940.99000   0.
    42.28000  2938.62000   0.
    47.83000  2936.87000   0.
    53.39000  2935.46000   0.
    58.94000  2933.69000   0.
    64.49000  2931.95000   0.
    70.04000  2931.81000   0.
    75.60000  2931.36000   0.
    81.15000  2931.70000   0.
     0.51333  2967.60000   0.
     1.02667  2967.10000   0.
     2.05333  2966.03333   0.
     2.56667  2965.46667   0.
     3.59000  2964.63333   0.
     4.10000  2964.36667   0.
     5.12333  2963.83333   0.
     5.63667  2963.56667   0.
     6.66333  2963.06667   0.
     7.17667  2962.83333   0.
     8.20333  2962.23333   0.
     8.71667  2961.86667   0.
     9.74000  2961.23333   0.
    10.25000  2960.96667   0.
    11.27333  2960.46667   0.
    11.78667  2960.23333   0.
    12.81333  2959.76667   0.
    13.32667  2959.53333   0.
    14.35333  2959.10000   0.
    14.86667  2958.90000   0.
    15.89000  2958.50000   0.
    16.40000  2958.30000   0.
    17.42333  2957.83333   0.
    17.93667  2957.56667   0.
    18.96333  2957.06667   0.
    19.47667  2956.83333   0.
    20.50000  2956.33333   0.
    21.01000  2956.06667   0.
    22.03333  2955.53333   0.
    22.54667  2955.26667   0.
    23.57333  2954.76667   0.
    24.08667  2954.53333   0.
    25.11333  2954.03333   0.
    25.62667  2953.76667   0.
    26.65333  2953.26667   0.
    27.16667  2953.03333   0.
    28.19000  2952.50000   0.
    28.70000  2952.20000   0.
    29.72333  2951.63333   0.
    30.23667  2951.36667   0.
    31.26333  2950.80000   0.
    31.77667  2950.50000   0.
    32.80333  2949.96667   0.
    33.31667  2949.73333   0.
    34.34000  2949.23333   0.
    34.85000  2948.96667   0.
    35.87333  2948.50000   0.
    36.38667  2948.30000   0.
    37.41333  2947.83333   0.
    37.92667  2947.56667   0.
    38.95333  2947.10000   0.
    39.46667  2946.90000   0.
    40.49000  2946.50000   0.
    41.00000  2946.30000   0.
    42.02333  2945.90000   0.
    42.53667  2945.70000   0.
    43.56333  2945.36667   0.
    44.07667  2945.23333   0.
    45.10333  2944.90000   0.
    45.61667  2944.70000   0.
    46.64000  2944.36667   0.
    47.15000  2944.23333   0.
    48.17333  2943.93333   0.
    48.68667  2943.76667   0.
    49.71333  2943.53333   0.
    50.22667  2943.46667   0.
    51.25333  2943.26667   0.
    51.76667  2943.13333   0.
    52.79000  2942.83333   0.
    53.30000  2942.66667   0.
    54.32333  2942.36667   0.
    54.83667  2942.23333   0.
    55.86333  2941.93333   0.
    56.37667  2941.76667   0.
    57.40333  2941.40000   0.
    57.91667  2941.20000   0.
    58.94000  2940.86667   0.
    59.45000  2940.73333   0.
    60.47333  2940.43333   0.
    60.98667  2940.26667   0.
    62.01333  2939.90000   0.
    62.52667  2939.70000   0.
    63.55333  2939.36667   0.
    64.06667  2939.23333   0.
    65.34500  2939.15000   0.
    66.88000  2939.20000   0.
    68.42000  2939.15000   0.
    69.70333  2939.03333   0.
    70.21667  2938.96667   0.
    71.24000  2938.80000   0.
    71.75000  2938.70000   0.
    72.77333  2938.50000   0.
    73.28667  2938.40000   0.
    74.31333  2938.36667   0.
    74.82667  2938.43333   0.
    75.85333  2938.56667   0.
    76.36667  2938.63333   0.
    77.64500  2938.65000   0.
    78.92333  2938.66667   0.
    79.43667  2938.73333   0.
    80.72000  2938.85000   0.
    82.00333  2938.96667   0.
    82.51667  2939.03333   0.
    83.79500  2939.10000   0.
     0.08400  2959.57200   0.
     1.19600  2958.89800   0.
     2.30800  2958.22400   0.
     4.53000  2956.94200   0.
     5.64000  2956.33400   0.
     6.75000  2955.72600   0.
     7.86000  2955.11800   0.
    10.35750  2953.84750   0.
    11.74500  2953.18500   0.
    13.13250  2952.52250   0.
    15.90750  2951.24000   0.
    17.29500  2950.62000   0.
    18.68250  2950.00000   0.
    21.18200  2948.82200   0.
    22.29400  2948.26400   0.
    23.40600  2947.70600   0.
    24.51800  2947.14800   0.
    26.74000  2946.00600   0.
    27.85000  2945.42200   0.
    28.96000  2944.83800   0.
    30.07000  2944.25400   0.
    32.56750  2943.00000   0.
    33.95500  2942.33000   0.
    35.34250  2941.66000   0.
    38.11750  2940.39750   0.
    39.50500  2939.80500   0.
    40.89250  2939.21250   0.
    43.66750  2938.18250   0.
    45.05500  2937.74500   0.
    46.44250  2937.30750   0.
    49.22000  2936.51750   0.
    50.61000  2936.16500   0.
    52.00000  2935.81250   0.
    54.77750  2935.01750   0.
    56.16500  2934.57500   0.
    57.55250  2934.13250   0.
    60.32750  2933.25500   0.
    61.71500  2932.82000   0.
    63.10250  2932.38500   0.
    65.87750  2931.91500   0.
    67.26500  2931.88000   0.
    68.65250  2931.84500   0.
    71.43000  2931.69750   0.
    72.82000  2931.58500   0.
    74.21000  2931.47250   0.
    76.98750  2931.44500   0.
    78.37500  2931.53000   0.
    79.76250  2931.61500   0.
    82.53750  2931.75500   0.
    83.92500  2931.81000   0.
     6.60134  2937.05984   0.
    20.80435  2932.52560   0.
     3.78758  2946.36592   0.
    15.48523  2940.98228   0.
    29.30091  2934.50364   0.
    23.90594  2939.46561   0.
    40.87322  2931.62711   0.
     1.03219  2951.87344   0.
    10.83406  2946.32292   0.
    20.42668  2943.42459   0.
    48.80952  2930.83467   0.
    35.50309  2935.49258   0.
     7.54365  2949.73854   0.
    28.57967  2939.84283   0.
    15.90963  2945.83181   0.
    44.30452  2933.27820   0.
    -0.12722  2955.42655   0.
    24.47411  2943.04615   0.
     4.45051  2952.86019   0.
    40.01017  2935.22543   0.
    52.75593  2931.58993   0.
    13.75183  2934.27842   0.
    32.31862  2938.44653   0.
     0.40990  2931.04902   0.
    19.20708  2946.27332   0.
    57.19103  2930.55709   0.
    -0.97178  2947.27328   0.
    19.39705  2939.49643   0.
    11.08068  2950.12444   0.
    32.86215  2930.47012   0.
     7.41320  2941.82707   0.
    13.76382  2948.77946   0.
    27.17579  2942.79365   0.
     7.27112  2952.68663   0.
     2.71547  2954.94653   0.
    22.91159  2945.17994   0.
     2.00816  2941.86911   0.
    24.73355  2934.79062   0.
    47.86753  2934.00196   0.
    50.62083  2933.29089   0.
    60.15732  2930.28185   0.
    37.65425  2937.53830   0.
    44.64836  2929.77041   0.
    10.93416  2939.02064   0.
     4.26476  2949.76242   0.
    36.78915  2931.78219   0.
     7.36345  2946.13476   0.
    30.92470  2941.06806   0.
     6.19921  2931.10091   0.
    35.16618  2938.51604   0.
    16.36294  2929.87801   0.
    13.43632  2943.77014   0.
    42.64967  2935.50406   0.
    26.89596  2931.23775   0.
     1.59760  2936.73753   0.
    17.19200  2948.13905   0.
    -0.61497  2957.60981   0.
    26.49360  2937.36117   0.
     9.56799  2951.50953   0.
    17.55858  2943.77119   0.
    55.26825  2932.33039   0.
    22.03247  2936.46128   0.
    16.10828  2937.24515   0.
    22.48452  2941.40733   0.
    20.86327  2946.43955   0.
    29.71126  2937.35408   0.
    32.14062  2935.59882   0.
    45.26358  2935.44707   0.
    29.19256  2942.39482   0.
    25.22337  2944.48902   0.
    25.77440  2940.40763   0.
     5.12787  2951.33100   0.
     9.72036  2943.07255   0.
     0.63027  2944.64860   0.
     5.15669  2954.13690   0.
    33.80274  2940.56791   0.
     1.57076  2956.41210   0.
     9.31000  2947.97928   0.
     9.87726  2933.53233   0.
    53.60824  2932.85261   0.
    40.63972  2936.89193   0.
    13.47285  2946.23828   0.
    37.68088  2934.75035   0.
    46.32767  2931.88185   0.
    18.64740  2941.16071   0.
    13.09413  2950.32980   0.
    18.01744  2935.92389   0.
     0.55332  2948.73049   0.
     5.35766  2947.55011   0.
    42.44669  2933.52960   0.
    57.75733  2932.24094   0.
    23.68300  2931.83870   0.
    19.94397  2947.74183   0.
    61.81887  2931.15328   0.
[...]
POINT_DATA      1414
CELL_DATA      2568
SCALARS Resistivity(ohm.m) double 1
LOOKUP_TABLE default
          1140.37435          1826.35637          2243.50683          1100.68544           536.97644          2300.51230          1241.60678          1433.93476          1682.27039          2113.66510           725.39440          2042.18598           581.44604          2356.48508          2327.38252          1862.84169          1631.92834           452.25947           493.94638          2399.91698          1144.16710          1909.31881          1282.11732           591.80419          1960.03424           489.87068           257.53057          2293.86213          2251.65682          2242.84506           515.20385           502.43702          1732.97435           417.14412           370.75885          1667.38527           671.51250           938.79692          1235.55617          1545.59974          1861.85865           645.08990           464.95736          2358.43540           332.92246           434.47458          2837.26274           779.04750           593.82190           845.64368          2493.91081          1940.70571           951.47540          1626.59440          2174.13165           909.86523           361.35473          2253.94314           453.59979          1029.48982           550.63351          2223.83059           447.07000          1831.09258           262.55205          1583.85674          2238.88254          2087.17273           288.16038           736.65187           481.59406           709.60874          2127.99104           401.15926           319.64341          2928.01587          1430.25137           448.78875           334.60420          2667.93575          2534.40858          1363.82936           431.99622           445.91640          2148.78076           803.35262           335.19159          2145.07683           781.03493          1965.47792          1032.19436           359.92761          2281.18453           363.15413          1794.83140          2089.31860           536.59428          1166.69525          2253.34916           989.53964          1583.34851           560.13638           648.74748           674.67743          1012.07947          1737.98588           529.44582           887.89450          2087.93670          1250.91063           389.15335          1027.25588          2541.93689          1848.93356          2088.04211          1320.25168           941.62263          1554.94888           455.57331           317.35411          2353.47892          1402.55808          2938.05277           722.09359           509.58488          2187.91229          2441.10798          3193.17930          1827.61201          1366.89158          2169.59603          1094.58431          1241.58445          2326.95894           788.22365          2843.88616           384.27334          1717.22419          1000.17126          1374.88862          1653.71487           536.92000           634.02200          1271.44395          1719.11120           584.84424           473.94322          1502.54938          2050.36887           514.91955          2223.78984          1994.54438           886.08943           637.59313          2354.64820           290.08849          1546.14041           415.39805          2270.36242          1292.71083          1104.75705           535.51731          2351.33068           489.59338          2241.99534           557.08771          1410.61228          1777.56240          1959.64892          1798.97630           658.92201           743.78400           702.50782           271.80283           415.45517           833.13791           819.72406          3571.49048          2669.82041          1086.95143          2334.42324          1330.61376          2104.73904           734.42462           556.71590           964.32367           872.30294           666.10135           779.75646          2473.95987          1222.13187          2422.88454           607.89235          2572.55560           268.06227           520.82213          2515.11307          2157.43375          1220.72966           423.17786           288.69666           735.91217          1811.14305          1473.92274          1756.24286          1037.63015          3901.67263          2197.72906           394.66057          2207.20342          1327.80829           612.07684           428.65554           338.13242           554.35479          1179.79531          2376.68641           484.34797          1222.59852           541.80056           779.84197          1283.71985          1072.53322           347.67580           627.56854           656.44977           382.96501           557.60518          1296.64710           321.36712           943.80245          1994.95695          1427.16233          2962.94170          2390.55805          1603.68654          2410.36881          1355.13464          1356.38198          1381.12009          2554.17192           622.60200           960.99454           408.98747          2441.65008           268.83528          1945.43467           505.56481           444.14155          2179.98808           259.29892          1987.35938          1687.74694           694.76144          2119.70666           932.13015           604.11822           729.48059           679.33158          2898.82435           568.66974          2215.80901           477.42834           436.72450           461.40355          1592.64863           360.74434          2279.89386           908.46824          2208.67328           893.93070          2076.71840          2442.02613          2307.52462           462.89782          1664.70568          2166.86830           458.29529           641.83570           610.02765           462.68295          1405.46989           279.77062           906.10669           833.84738          2272.38200           481.14059          2404.53726           604.78887           462.31203           831.85954           309.73760          2354.41115           664.77590          2057.00468          2336.95040          1411.25108           552.57975           444.56309           657.89127           912.95005           459.08204          2442.97635          2536.79481           412.08505          1882.49653          1326.98623          1568.21217          1998.64093           385.60567           698.87874           571.06177           289.76034          2312.05512           706.12577           338.80471           512.72305          1044.95823          2772.85621           470.32624          3290.38663           387.32913           947.34459           446.17849           556.17729          1206.66783           478.96412          1409.39904          1043.29963          2820.26732          1843.82764          2260.13201           512.83749          1537.67123           341.37763           396.70510           605.22767           600.61557          3162.45990           535.02322          2253.76334           416.63613          2228.12653           455.88639           590.98574          1871.30646          1150.52949          1069.57372           474.20714          2283.75608           449.24767          2458.94652           784.53761           378.91885           475.57929          2193.08966           514.73576          1564.98882           313.54524           386.17542           738.87021          1544.58406           831.74156           523.68418          1368.68054           493.81312           364.60615          2345.88432          1755.04237          2657.99615           451.39026          1314.81671          1431.98132           900.33656           289.20649          2626.58287           401.59166           478.60356           429.56169          2133.10141          1377.97394           433.17672          1825.43048          2401.13821           267.41951          1360.46918           574.68321          1278.63257           451.65027          1453.50199           708.45434           331.40284          1451.45749          1336.80357           428.53451           735.36799           570.60591          1256.04534          1793.23363           936.55856           563.15306           628.10293          1349.96887          1453.30313          1309.36948           857.10330           500.20339           932.39325          2314.79745          1668.60123          1493.16655          2268.58761           918.85180           615.77189          1040.75339          2439.53242           625.58440           880.77759           660.07344          1744.50328           894.69573           378.79059          2293.44654          1368.99990          1262.38687           277.44701          1574.05487           567.17608          1422.51543           480.31325          1319.51740           469.90760           426.81669          1917.60262          1002.52458          1499.24436          1503.00631           607.90134          1957.15463          1208.94809          3566.50346           576.14381          1179.04056          2048.60035          1148.22921          1041.76691          1297.24808          1212.89743          4221.68054           846.27090          3297.14148          1585.18306          1413.90424          1112.04052          1626.14343           806.73229          2215.02288           914.57299          1300.59578           437.70657          1993.18480          1339.36826           878.75837          1232.18187          2237.20073           813.36500           780.92973          1088.60248          1676.17644          1659.78612           744.60055          1902.97918           852.28487           280.07131          2016.68965          3917.39216           968.26830           428.77065          1450.83562           694.20770           978.55654          1901.84565           522.91833           526.88754          2196.99651          2611.54483          1166.47386           362.20468           636.45336           758.67817          1290.91229          1054.52620          1066.35143          1533.06077           799.01138          1478.25153           765.98093          1035.76025          2549.44800          1886.47320           619.45981           329.43356           578.89502          1247.27950           770.75068          1193.24991          3668.72656          1260.75144           356.80651           496.70233          1186.11903          1185.60981           840.49786           401.72517          3179.83354          1402.14019           365.68319          3317.90174          2336.00020           431.07143          1387.60697          1254.00435          1068.73522          1113.41107          1064.43339           551.38001          1550.01533          1454.92445          1481.37904          1199.28859           707.68481          1706.79615           454.41089          1118.11120           582.02587           437.60147           725.68535          1759.09968          1092.63266           929.53813           450.34576           389.61586          1756.29548          1138.83465          4032.80689          4333.74585          3416.93346          2067.50196          2018.76736          2013.61652          3238.44491          4390.59458           656.67810          4313.49204           444.30863          1089.26966          1421.32144           630.26674          3560.13905          5289.56663          1226.14692           419.62365          1998.36575          2526.56827           815.44691           853.50786          1476.77725          4596.57754          1334.09261          2343.01842           954.76787           591.06281          1358.21239          1673.43465           433.50069          3304.19258           529.38522          1449.87164          4899.10138          4157.12324          1654.33191          4932.77196           297.02074           834.60832           502.02236          1820.72525          2562.76279          1813.06785          2973.50317          1876.34699          2472.93705           775.58781          1565.81195          1295.53230          1820.47766          8146.13890          3632.65778           989.36869          5044.66844          3713.17959           779.31886           675.28143          4968.44138          2708.49979          4617.01141          4870.74206          1562.44568           893.39542           677.95691           499.80202           835.72721          4021.71343          1664.37932          1024.24168          1668.13887           339.07405          1033.39806          1878.18715          3657.78168           996.50772           885.89054           677.99770           818.47912          1495.92841          1574.46822           819.86327          3201.35081          2849.15107          3199.72646          3119.37366          6126.77006          3834.25001          2570.60180           624.47040          4226.00914          1141.33366          1658.84234           665.14512          1464.73728           919.12948           377.06129          5973.44460          4827.93154          1560.50147          1688.28564          2601.16190          2295.87442          3157.01840          3105.99357           937.54838          1189.69125           566.09898           804.19107           426.36609           532.71699           739.29727           586.69312          2038.66405          3751.71296          3310.49904          1521.61151          2052.66878          1489.90549          1620.29291          7893.88940          5168.47119          1862.63724           447.64072           592.26098          5427.40925           704.21904          3946.51296          4123.83857          1017.94208          2249.18702           670.05389           951.56921          1025.50268          2178.21199          2263.27004          2777.19767           603.08219           551.13370          1075.00132           356.54797           598.39577           417.18052          3556.57790          4969.79787           445.97073          2929.61630           879.48580          2506.44254          1138.43714           693.03232           628.42661           765.91795           640.63659          2037.82328           749.13668          1431.04511           696.81770          2294.95592          1894.38958          3889.84562          2641.81305           659.97192           552.61599           336.68008          2870.61636           678.02963           731.79095          1359.56555          2754.53399           713.18085           875.74120           513.41176          1322.79609           957.20303          1665.07212          1372.25467           594.28660           750.91099           715.56304          2501.13835          1764.66824          1210.44482          7514.40157          1024.54920           892.06807           933.88472          1439.18759          2493.87476          1557.92909          1549.25768          1707.86104          2602.05813           592.62989          6598.87560          1257.68745          2542.76717           811.19912          1084.37539          3814.31101          2556.02276           762.91245          1130.84291          3346.40869           485.30063           504.18389          1231.09819          2829.92797          5354.85887          1460.93645          7113.99695          1363.92044          1682.01014          1579.08899          1108.29706           450.28676           793.84103          2586.38047           655.28138          3909.59353           600.58251          3224.53908           821.81771           734.89289          1412.34875          1949.66023          2748.18868          4876.90629          2638.65630          1392.90878          1722.73724          1291.92015          5122.36458          7177.86330          2022.93259           950.55552          2978.81283           608.31705          1060.30584           858.40732          2692.77273          1065.71611           998.36239           591.13751           594.22047          3497.52367          1072.77973           843.08041          5964.64339          3632.08396          2501.49636          1446.95905          7250.66190           806.40227          2482.47885          2881.13187          2169.03993          1181.01417          2813.38626          4968.56701          1840.39632           402.88759           729.03693           887.89619          1788.72065          1729.28015           679.46074           756.41871          5786.59495           804.83769          1136.19067          1870.77161          4034.56842          4387.43254           461.62774          1415.98788           874.11058          1124.35200          1888.83886           760.16629           838.62208          1520.47459           772.17372           581.75724           425.61663           722.76134          2764.75872           511.51089          2773.71131          1778.95500          1979.02475          1372.30773          1768.96040          1644.52079           445.24497          3682.55387          1442.98702          2004.00740          1963.75074          2131.04396          4384.25842           833.05400          5662.59440           547.77739           750.13544          1447.72589          1075.36326          7416.72396          2508.86791           869.24287          1550.97130          3743.20075          3374.58625           611.81863          4503.91216          1470.46525          2593.03264           997.30608          3330.85742          3633.14274           515.24243          3314.52410          3637.92444          2551.66945          4825.88198           888.95346           742.61478          1073.20903          2258.76403           440.73689          8036.19035          3910.71205           628.36998          1662.91052          1765.69233          2055.56938           826.43322          1067.03563         12751.08927           713.70399          2255.86425          1363.45025           506.67572           781.62594          2600.94129          5008.57404          5698.20858          1711.63296          2621.38556          2537.86005          4660.65106           725.05574          1479.22200          2080.17105          1826.97729          4800.19472           579.67291          1068.16864          2819.52438           843.23878          3643.92534          2262.73441          7041.55733          2419.37597          1066.90516          1114.39575           607.11820          4511.49114          7426.21311          1840.92260           296.24240           395.24961           789.03095           853.56323          6387.04723          1295.94889          1962.01203          3060.76771          2353.55358          5369.55367          5268.02235           363.07783           583.50509           796.43927          1159.03418           708.48500          4082.92200          3783.53002          1364.17747           692.22080          1019.97347          2189.48290          3560.34427          2298.16522          2081.73870           919.40629          3876.55600          6555.00618           470.47297           659.71181          1848.36478          7806.51820          1894.56772          2825.84208          4754.76004           707.93845          1833.42778          4214.61291           480.02988          1481.25938          1063.30628          5139.81289           910.04493          1788.11099          2577.97741          5036.32248          4499.30899          6229.51420          4463.56281          4128.59694          1926.60869           881.66700          3294.26587          8739.09102           610.71259          2567.38816          2532.93312           280.37964          2432.64483          3444.25987          2526.24451           452.43711          4011.31707           799.28906          3380.68001          4133.50518          1814.91998           760.46258          2974.00668          3342.31575          4404.81143          6135.06895          5674.59832           650.01014           621.94844          1256.56737          4331.24814          1095.52038          2646.25831           878.87251           566.171