# vtk DataFile Version 3.0
Output from R2
ASCII
DATASET UNSTRUCTURED_GRID
POINTS       1414 double
     0.00000  2968.10000   0.
     1.54000  2966.60000   0.
     3.08000  2964.90000   0.
     4.61000  2964.10000   0.
     6.15000  2963.30000   0.
     7.69000  2962.60000   0.
     9.23000  2961.50000   0.
    10.76000  2960.70000   0.
    12.30000  2960.00000   0.
    13.84000  2959.30000   0.
    15.38000  2958.70000   0.
    16.91000  2958.10000   0.
    18.45000  2957.30000   0.
    19.99000  2956.60000   0.
    21.52000  2955.80000   0.
    23.06000  2955.00000   0.
    24.60000  2954.30000   0.
    26.14000  2953.50000   0.
    27.68000  2952.80000   0.
    29.21000  2951.90000   0.
    30.75000  2951.10000   0.
    32.29000  2950.20000   0.
    33.83000  2949.50000   0.
    35.36000  2948.70000   0.
    36.90000  2948.10000   0.
    38.44000  2947.30000   0.
    39.98000  2946.70000   0.
    41.51000  2946.10000   0.
    43.05000  2945.50000   0.
    44.59000  2945.10000   0.
    46.13000  2944.50000   0.
    47.66000  2944.10000   0.
    49.20000  2943.60000   0.
    50.74000  2943.40000   0.
    52.28000  2943.00000   0.
    53.81000  2942.50000   0.
    55.35000  2942.10000   0.
    56.89000  2941.60000   0.
    58.43000  2941.00000   0.
    59.96000  2940.60000   0.
    61.50000  2940.10000   0.
    63.04000  2939.50000   0.
    64.58000  2939.10000   0.
    66.11000  2939.20000   0.
    67.65000  2939.20000   0.
    69.19000  2939.10000   0.
    70.73000  2938.90000   0.
    72.26000  2938.60000   0.
    73.80000  2938.30000   0.
    75.34000  2938.50000   0.
    76.88000  2938.70000   0.
    78.41000  2938.60000   0.
    79.95000  2938.80000   0.
    81.49000  2938.90000   0.
    83.03000  2939.10000   0.
    84.56000  2939.10000   0.
     3.42000  2957.55000   0.
     8.97000  2954.51000   0.
    14.52000  2951.86000   0.
    20.07000  2949.38000   0.
    25.63000  2946.59000   0.
    31.18000  2943.67000   0.
    36.73000  2940.99000   0.
    42.28000  2938.62000   0.
    47.83000  2936.87000   0.
    53.39000  2935.46000   0.
    58.94000  2933.69000   0.
    64.49000  2931.95000   0.
    70.04000  2931.81000   0.
    75.60000  2931.36000   0.
    81.15000  2931.70000   0.
     0.51333  2967.60000   0.
     1.02667  2967.10000   0.
     2.05333  2966.03333   0.
     2.56667  2965.46667   0.
     3.59000  2964.63333   0.
     4.10000  2964.36667   0.
     5.12333  2963.83333   0.
     5.63667  2963.56667   0.
     6.66333  2963.06667   0.
     7.17667  2962.83333   0.
     8.20333  2962.23333   0.
     8.71667  2961.86667   0.
     9.74000  2961.23333   0.
    10.25000  2960.96667   0.
    11.27333  2960.46667   0.
    11.78667  2960.23333   0.
    12.81333  2959.76667   0.
    13.32667  2959.53333   0.
    14.35333  2959.10000   0.
    14.86667  2958.90000   0.
    15.89000  2958.50000   0.
    16.40000  2958.30000   0.
    17.42333  2957.83333   0.
    17.93667  2957.56667   0.
    18.96333  2957.06667   0.
    19.47667  2956.83333   0.
    20.50000  2956.33333   0.
    21.01000  2956.06667   0.
    22.03333  2955.53333   0.
    22.54667  2955.26667   0.
    23.57333  2954.76667   0.
    24.08667  2954.53333   0.
    25.11333  2954.03333   0.
    25.62667  2953.76667   0.
    26.65333  2953.26667   0.
    27.16667  2953.03333   0.
    28.19000  2952.50000   0.
    28.70000  2952.20000   0.
    29.72333  2951.63333   0.
    30.23667  2951.36667   0.
    31.26333  2950.80000   0.
    31.77667  2950.50000   0.
    32.80333  2949.96667   0.
    33.31667  2949.73333   0.
    34.34000  2949.23333   0.
    34.85000  2948.96667   0.
    35.87333  2948.50000   0.
    36.38667  2948.30000   0.
    37.41333  2947.83333   0.
    37.92667  2947.56667   0.
    38.95333  2947.10000   0.
    39.46667  2946.90000   0.
    40.49000  2946.50000   0.
    41.00000  2946.30000   0.
    42.02333  2945.90000   0.
    42.53667  2945.70000   0.
    43.56333  2945.36667   0.
    44.07667  2945.23333   0.
    45.10333  2944.90000   0.
    45.61667  2944.70000   0.
    46.64000  2944.36667   0.
    47.15000  2944.23333   0.
    48.17333  2943.93333   0.
    48.68667  2943.76667   0.
    49.71333  2943.53333   0.
    50.22667  2943.46667   0.
    51.25333  2943.26667   0.
    51.76667  2943.13333   0.
    52.79000  2942.83333   0.
    53.30000  2942.66667   0.
    54.32333  2942.36667   0.
    54.83667  2942.23333   0.
    55.86333  2941.93333   0.
    56.37667  2941.76667   0.
    57.40333  2941.40000   0.
    57.91667  2941.20000   0.
    58.94000  2940.86667   0.
    59.45000  2940.73333   0.
    60.47333  2940.43333   0.
    60.98667  2940.26667   0.
    62.01333  2939.90000   0.
    62.52667  2939.70000   0.
    63.55333  2939.36667   0.
    64.06667  2939.23333   0.
    65.34500  2939.15000   0.
    66.88000  2939.20000   0.
    68.42000  2939.15000   0.
    69.70333  2939.03333   0.
    70.21667  2938.96667   0.
    71.24000  2938.80000   0.
    71.75000  2938.70000   0.
    72.77333  2938.50000   0.
    73.28667  2938.40000   0.
    74.31333  2938.36667   0.
    74.82667  2938.43333   0.
    75.85333  2938.56667   0.
    76.36667  2938.63333   0.
    77.64500  2938.65000   0.
    78.92333  2938.66667   0.
    79.43667  2938.73333   0.
    80.72000  2938.85000   0.
    82.00333  2938.96667   0.
    82.51667  2939.03333   0.
    83.79500  2939.10000   0.
     0.08400  2959.57200   0.
     1.19600  2958.89800   0.
     2.30800  2958.22400   0.
     4.53000  2956.94200   0.
     5.64000  2956.33400   0.
     6.75000  2955.72600   0.
     7.86000  2955.11800   0.
    10.35750  2953.84750   0.
    11.74500  2953.18500   0.
    13.13250  2952.52250   0.
    15.90750  2951.24000   0.
    17.29500  2950.62000   0.
    18.68250  2950.00000   0.
    21.18200  2948.82200   0.
    22.29400  2948.26400   0.
    23.40600  2947.70600   0.
    24.51800  2947.14800   0.
    26.74000  2946.00600   0.
    27.85000  2945.42200   0.
    28.96000  2944.83800   0.
    30.07000  2944.25400   0.
    32.56750  2943.00000   0.
    33.95500  2942.33000   0.
    35.34250  2941.66000   0.
    38.11750  2940.39750   0.
    39.50500  2939.80500   0.
    40.89250  2939.21250   0.
    43.66750  2938.18250   0.
    45.05500  2937.74500   0.
    46.44250  2937.30750   0.
    49.22000  2936.51750   0.
    50.61000  2936.16500   0.
    52.00000  2935.81250   0.
    54.77750  2935.01750   0.
    56.16500  2934.57500   0.
    57.55250  2934.13250   0.
    60.32750  2933.25500   0.
    61.71500  2932.82000   0.
    63.10250  2932.38500   0.
    65.87750  2931.91500   0.
    67.26500  2931.88000   0.
    68.65250  2931.84500   0.
    71.43000  2931.69750   0.
    72.82000  2931.58500   0.
    74.21000  2931.47250   0.
    76.98750  2931.44500   0.
    78.37500  2931.53000   0.
    79.76250  2931.61500   0.
    82.53750  2931.75500   0.
    83.92500  2931.81000   0.
     6.60134  2937.05984   0.
    20.80435  2932.52560   0.
     3.78758  2946.36592   0.
    15.48523  2940.98228   0.
    29.30091  2934.50364   0.
    23.90594  2939.46561   0.
    40.87322  2931.62711   0.
     1.03219  2951.87344   0.
    10.83406  2946.32292   0.
    20.42668  2943.42459   0.
    48.80952  2930.83467   0.
    35.50309  2935.49258   0.
     7.54365  2949.73854   0.
    28.57967  2939.84283   0.
    15.90963  2945.83181   0.
    44.30452  2933.27820   0.
    -0.12722  2955.42655   0.
    24.47411  2943.04615   0.
     4.45051  2952.86019   0.
    40.01017  2935.22543   0.
    52.75593  2931.58993   0.
    13.75183  2934.27842   0.
    32.31862  2938.44653   0.
     0.40990  2931.04902   0.
    19.20708  2946.27332   0.
    57.19103  2930.55709   0.
    -0.97178  2947.27328   0.
    19.39705  2939.49643   0.
    11.08068  2950.12444   0.
    32.86215  2930.47012   0.
     7.41320  2941.82707   0.
    13.76382  2948.77946   0.
    27.17579  2942.79365   0.
     7.27112  2952.68663   0.
     2.71547  2954.94653   0.
    22.91159  2945.17994   0.
     2.00816  2941.86911   0.
    24.73355  2934.79062   0.
    47.86753  2934.00196   0.
    50.62083  2933.29089   0.
    60.15732  2930.28185   0.
    37.65425  2937.53830   0.
    44.64836  2929.77041   0.
    10.93416  2939.02064   0.
     4.26476  2949.76242   0.
    36.78915  2931.78219   0.
     7.36345  2946.13476   0.
    30.92470  2941.06806   0.
     6.19921  2931.10091   0.
    35.16618  2938.51604   0.
    16.36294  2929.87801   0.
    13.43632  2943.77014   0.
    42.64967  2935.50406   0.
    26.89596  2931.23775   0.
     1.59760  2936.73753   0.
    17.19200  2948.13905   0.
    -0.61497  2957.60981   0.
    26.49360  2937.36117   0.
     9.56799  2951.50953   0.
    17.55858  2943.77119   0.
    55.26825  2932.33039   0.
    22.03247  2936.46128   0.
    16.10828  2937.24515   0.
    22.48452  2941.40733   0.
    20.86327  2946.43955   0.
    29.71126  2937.35408   0.
    32.14062  2935.59882   0.
    45.26358  2935.44707   0.
    29.19256  2942.39482   0.
    25.22337  2944.48902   0.
    25.77440  2940.40763   0.
     5.12787  2951.33100   0.
     9.72036  2943.07255   0.
     0.63027  2944.64860   0.
     5.15669  2954.13690   0.
    33.80274  2940.56791   0.
     1.57076  2956.41210   0.
     9.31000  2947.97928   0.
     9.87726  2933.53233   0.
    53.60824  2932.85261   0.
    40.63972  2936.89193   0.
    13.47285  2946.23828   0.
    37.68088  2934.75035   0.
    46.32767  2931.88185   0.
    18.64740  2941.16071   0.
    13.09413  2950.32980   0.
    18.01744  2935.92389   0.
     0.55332  2948.73049   0.
     5.35766  2947.55011   0.
    42.44669  2933.52960   0.
    57.75733  2932.24094   0.
    23.68300  2931.83870   0.
    19.94397  2947.74183   0.
    61.81887  2931.15328   0.
[...]
POINT_DATA      1414
CELL_DATA      2568
SCALARS Resistivity(ohm.m) double 1
LOOKUP_TABLE default
          1217.52839          1962.67772          1892.54287          1171.23523           506.13329          2180.50883          1343.79622          1572.77185          1744.57919          2040.45373           718.61660          1975.47543           556.88215          2576.73995          2525.93902          1891.11202          1755.79136           436.28866           533.38654          2447.75043          1216.12285          1906.86005          1372.18745           586.94533          2133.19777           481.54854           258.07315          2264.97020          2325.92348          1929.13409           547.03765           483.88035          1869.02948           429.16553           348.01336          1781.14770           643.88949           982.99979          1317.47227          1654.83403          1933.57207           621.35433           497.63475          2477.69786           339.47045           433.74599          2898.12486           784.23255           568.60811           853.35410          2646.14895          2102.79000          1001.88722          1736.80046          2110.06045           951.91162           357.65401          2000.31963           464.37646          1095.26837           518.07876          2440.06705           422.82086          1861.85419           264.01601          1638.32651          2355.95766          2071.00634           286.30999           775.66817           478.53353           692.66413          2284.37423           400.40219           298.14944          2904.61303          1534.57299           448.69971           305.86024          2783.34161          2689.70027          1501.12021           442.45929           452.34177          2354.07583           842.36712           334.76793          2221.26122           780.44649          2016.24427          1093.40545           372.72591          2064.14404           338.79580          1888.24479          2268.29607           530.43493          1254.97209          2450.82406          1043.48112          1696.31447           549.31657           657.33692           655.40239          1126.53541          1831.17448           516.14760           921.12239          2087.77806          1349.02929           354.88038          1101.90110          2596.87726          1914.97368          2204.14488          1371.37112           994.60794          1671.98100           493.62362           313.48704          2322.73181          1507.30480          2966.58905           722.08311           516.78884          2346.23679          2506.71616          3167.49525          1864.27402          1500.47438          2215.86235          1160.94833          1312.49860          2560.17358           795.44147          2799.31835           356.34266          1832.93469          1055.50524          1428.65709          1780.25649           532.30281           651.41835          1395.05547          1856.51798           583.02966           508.29400          1615.66383          2233.56030           507.53367          1954.90347          2156.58217           917.44843           611.03219          2509.91878           273.13329          1662.28883           425.40436          2391.31740          1370.08189          1187.19726           548.21653          2372.45345           508.52229          2053.60414           518.69648          1530.38377          1866.16652          2033.39392          1946.65443           637.34466           742.18427           717.47283           268.15394           434.42636           862.47214           859.59419          3433.28898          2657.66324          1159.65255          2405.66759          1455.30440          2210.20478           746.20135           531.66994          1014.66060           914.92965           695.69696           791.82109          2647.03948          1295.50749          2631.51526           653.47895          2725.44002           268.40082           566.61901          2695.93155          2138.52307          1308.87250           454.91281           269.51792           731.14255          1866.82597          1577.86419          1835.32419          1098.17200          3713.76138          2031.69081           419.30562          1983.38799          1422.10892           607.67594           459.82618           327.31244           545.46784          1261.96742          2537.01360           475.91875          1312.38262           575.24963           786.77999          1382.01290          1141.75287           328.90009           606.08783           699.51144           353.70248           602.05375          1337.30980           323.68262          1005.97269          2005.88291          1535.02945          2860.91486          2559.67310          1699.70879          2608.21347          1471.31335          1458.78749          1485.35573          2702.06777           595.96585          1010.07870           419.93770          2653.83419           257.44329          2042.17344           518.63262           423.29453          2061.05880           251.62921          1963.64071          1759.99669           735.41703          2265.54865           972.76535           581.73071           766.39191           666.67708          2777.39547           537.61107          2030.01717           480.54489           461.30256           485.00430          1682.76055           350.19523          2027.47253           951.70183          1994.17328           941.90387          1977.68346          2459.08603          2368.79535           458.98474          1783.13757          1989.97389           436.75470           613.76495           583.50440           431.64915          1486.16299           269.06362           942.26054           857.58981          1940.74887           523.99397          2531.97471           576.83243           440.66935           859.96684           291.40377          2581.13599           701.81532          2219.34238          2319.40971          1513.56443           572.30498           461.47774           697.78822           946.66712           492.88876          2615.38300          2642.37069           433.99927          2009.99257          1414.53147          1689.42965          2108.43108           360.88870           741.24484           540.96886           292.17152          2145.74980           696.70756           316.80805           507.05037          1133.41119          2673.20246           474.26308          3174.71247           386.19676          1045.90326           414.48030           598.23618          1285.87547           506.78503          1478.18319          1101.51272          2860.86407          1960.87466          2231.60686           545.77471          1634.92074           344.83829           411.62351           649.48062           581.68867          3095.13245           527.22407          2462.60156           392.15472          2274.87420           484.81415           603.25723          2015.73941          1234.17818          1200.94305           497.11969          2411.17048           436.51410          2609.27935           822.47143           343.48677           518.19012          2387.92498           534.72882          1660.02156           319.21110           407.20990           737.36034          1632.86919           852.30026           548.47350          1459.14527           508.72681           334.70970          2224.77643          1813.12892          2608.67976           428.97891          1387.62433          1539.03750           949.68657           292.14717          2728.12336           406.01896           457.01159           449.30787          2334.03229          1480.05675           405.34931          1923.98577          2623.12386           255.63447          1441.87046           547.98228          1388.28592           488.50022          1557.58717           743.00278           340.42033          1541.11176          1436.83048           407.18641           732.50460           596.86252          1385.08776          1930.80366           987.87364           527.71423           660.19534          1451.29595          1497.53332          1406.72152           890.97386           492.14006           978.56464          2210.86959          1763.25738          1594.30696          2495.87300           969.84415           623.88623          1103.93341          2585.86342           597.54018           965.16206           639.02125          1811.05605           936.80152           397.16719          2478.69026          1473.74245          1356.43806           279.26594          1701.46685           534.41859          1523.24740           502.55299          1418.06542           479.16956           407.27067          1992.59567          1058.83510          1613.48346          1606.65253           581.03666          2092.05418          1331.34523          3455.72132           565.68762          1258.22341          2105.88190          1220.68568          1107.08505          1355.13952          1296.24938          3963.14413           883.29932          3229.57089          1690.32729          1543.22769          1214.50241          1736.78202           823.81918          2377.28503           959.71703          1405.34729           442.34931          2139.68746          1439.28953           920.26583          1351.14543          2132.77272           837.44191           791.59765          1181.59004          1791.65022          1746.05962           728.82599          2053.52753           876.48548           284.27625          2134.97443          3688.08251          1029.26039           428.93901          1559.17647           681.05679          1017.56671          1963.40017           567.99696           551.64161          2113.91195          2728.74995          1272.74801           331.38698           607.98970           763.50487          1384.96514          1136.21484          1126.98612          1601.35584           832.60847          1539.84011           792.26567          1097.82414          2513.73674          2046.19394           592.95199           306.09021           547.31313          1341.22693           791.01004          1281.09326          3436.23409          1353.07473           371.81553           540.01430          1288.54391          1271.09385           860.43711           422.48851          3043.00874          1443.50492           382.47409          3126.38797          2533.01670           424.21987          1489.35593          1343.93343          1134.62288          1202.67527          1131.15196           588.92375          1649.74617          1526.54279          1565.08971          1319.19924           738.68408          1774.39991           428.46660          1223.52449           614.43462           430.31618           749.65896          1850.57444          1164.19404           975.47514           429.31465           404.99474          1866.38230          1217.59757          4045.15233          4217.60507          3409.59925          1995.73575          1961.14716          2028.61195          3416.77871          4519.73481           681.44502          4170.23891           425.21688          1072.51529          1502.65849           631.44011          3205.80460          5478.35647          1179.74306           454.59462          2290.70038          2449.89430           772.41133           755.94297          1369.77193          4390.46253          1363.90338          2135.65021           879.47042           610.56127          1388.70246          1599.69565           488.64408          3238.74006           543.49707          1387.26538          4931.24490          3946.20919          1652.03845          4737.58908           276.91974           791.68564           515.33236          1861.96091          2619.83591          1767.96961          3032.00514          2051.70962          2413.66600           766.99981          1719.48910          1331.02716          1737.10565          8537.77100          3482.22381           947.26711          4833.72753          3927.28647           761.19117           692.35610          4990.76459          2785.13495          4362.29759          4769.41880          1473.61653           937.42979           624.88812           540.54300           898.25964          4282.93511          1611.90435          1029.52031          1711.48253           302.19606          1071.58556          1828.74944          3609.72153          1057.30750           872.11320           659.90163           819.69853          1492.51400          1540.03651           882.74317          3185.47739          2924.22390          3172.02637          3193.32915          5884.88340          3935.95898          2688.51894           614.11804          3795.23158          1114.28466          1610.19250           609.37248          1342.64888           938.05930           371.81639          5904.75557          5010.02567          1481.76801          1740.07582          2557.72389          2380.42657          3030.99381          2744.41620           969.64879          1360.96070           559.62566           818.34870           464.66833           545.22355           763.98873           646.71467          2290.32102          3780.01726          3496.41014          1501.94539          2068.19737          1442.08857          1611.23320          8013.06497          4911.20381          1933.19557           487.57209           571.44263          5640.44298           619.87558          3616.47647          3966.04589          1046.18230          1980.78413           634.81024           917.78198          1034.61222          2209.22886          2213.67494          2797.60350           587.63747           560.32070          1099.59030           365.92285           593.18496           457.08101          3428.51006          4828.66457           491.99362          3166.34542           794.01177          2459.16993          1053.60721           661.29348           587.00683           695.45877           668.31219          2183.57343           681.11373          1515.38143           614.32167          2352.26938          1944.63557          4216.22424          2432.01233           672.19763           535.24450           320.97867          2932.25082           733.70166           690.23723          1415.13267          2762.57771           749.07437           838.66977           530.28334          1396.74005          1000.76210          1769.20107          1369.34543           597.26401           680.91751           684.23814          2493.70058          1571.46217          1201.79969          7985.86865          1025.80914          1011.52887           954.62966          1671.65188          2511.38987          1627.48881          1542.76575          1917.32365          2562.42535           552.91416          6098.34640          1349.71923          2539.53229           904.66553          1125.30812          4089.41242          2596.95781           721.46256          1211.70643          3269.62903           541.40887           513.71548          1145.00909          2610.12632          5476.72675          1359.40116          7063.27814          1477.01414          1759.94512          1543.24250          1041.37434           437.96494           781.07537          2520.33243           628.49312          3714.93485           586.45048          3458.12114           872.19505           735.57749          1543.94273          1779.19676          2693.77166          4816.51841          2680.62721          1239.83625          1686.45209          1330.56195          4864.27273          7043.55042          2098.17668           895.68891          3204.33513           622.08266          1072.71499           827.52149          2967.67905          1059.90437           938.57637           600.67257           597.46998          3320.75942          1175.12937           767.53453          5693.75511          3677.93945          2218.85154          1403.95062          7208.30317           798.83165          2741.91135          2935.81558          2276.77023          1315.39437          2828.80809          4932.06468          1897.51479           436.18294           688.39106           887.13893          1960.55294          1676.08821           721.01771           686.84214          5574.92263           779.89819          1221.14625          1766.15086          3806.73006          4300.07473           493.32080          1396.68177           947.76635          1100.23249          1985.86923           812.45115           868.12061          1464.06942           776.48258           579.43596           459.85452           798.62597          2733.61419           511.16394          2794.63771          1806.60988          2038.89494          1426.09140          1857.54798          1628.75541           472.63794          4358.11733          1482.49794          2074.19884          2070.47350          2236.66350          4364.79601           875.80218          5446.10524           541.64394           688.79870          1440.04277          1041.70570          7390.81215          2612.53403           941.90213          1601.19289          3847.91611          3334.90577           583.69777          4189.96850          1532.74909          2682.65073          1060.30066          3275.49318          3681.46428           526.61970          3459.05751          3802.30011          2672.57978          4961.79966           874.82404           710.21126          1041.23720          1907.16839           486.45308          8108.33320          4067.48345           574.91931          1696.28084          1822.86119          1992.23066           782.42718          1089.98876         13877.85983           639.11239          2238.52757          1259.56486           562.41901           722.81627          2534.06203          4976.30184          6043.89246          1731.65988          2320.73335          2528.88151          4413.28907           633.67693          1457.65158          2190.66891          1827.49925          4747.08819           566.30936          1050.13670          2779.74786           895.84718          3575.32455          2518.58489          6999.53919          3000.51223          1148.79683          1038.40966           620.09562          4577.15931          7462.49029          2051.85207           284.74025           432.89095           832.49957           784.27385          6212.75797          1169.74062          1898.31173          3076.96545          2264.87936          5334.60208          5404.52459           361.76045           560.33413           857.26133          1202.61980           637.22616          4213.20005          3684.21763          1504.76891           691.82826          1095.10673          2270.71097          3388.67363          2319.63578          2160.48244          1004.35929          3528.77371          6424.30513           505.63540           679.91832          1838.44439          8117.07641          2136.56103          2657.38202          4807.95507           722.11246          1928.76650          3971.06969           517.41066          1527.74178          1037.19345          5180.05153           962.66082          1854.52366          2686.18060          4754.02469          4750.40333          6085.03251          4337.95344          3991.94038          1792.71245           893.58207          3240.67257          8736.03154           605.27473          2533.21630          2748.21371           283.59264          2258.75986          4061.71343          2556.53093           432.11037          4175.49021           760.37503          3295.21325          4093.54728          1733.80225           802.22302          2970.68975          3394.34673          4169.82535          5882.82606          5490.20595           662.85331           598.64623          1378.53534          4103.62547          1113.48432          2847.73418           912.81818           585.452