# vtk DataFile Version 3.0
Output from R2
ASCII
DATASET UNSTRUCTURED_GRID
POINTS       1414 double
     0.00000  2968.10000   0.
     1.54000  2966.60000   0.
     3.08000  2964.90000   0.
     4.61000  2964.10000   0.
     6.15000  2963.30000   0.
     7.69000  2962.60000   0.
     9.23000  2961.50000   0.
    10.76000  2960.70000   0.
    12.30000  2960.00000   0.
    13.84000  2959.30000   0.
    15.38000  2958.70000   0.
    16.91000  2958.10000   0.
    18.45000  2957.30000   0.
    19.99000  2956.60000   0.
    21.52000  2955.80000   0.
    23.06000  2955.00000   0.
    24.60000  2954.30000   0.
    26.14000  2953.50000   0.
    27.68000  2952.80000   0.
    29.21000  2951.90000   0.
    30.75000  2951.10000   0.
    32.29000  2950.20000   0.
    33.83000  2949.50000   0.
    35.36000  2948.70000   0.
    36.90000  2948.10000   0.
    38.44000  2947.30000   0.
    39.98000  2946.70000   0.
    41.51000  2946.10000   0.
    43.05000  2945.50000   0.
    44.59000  2945.10000   0.
    46.13000  2944.50000   0.
    47.66000  2944.10000   0.
    49.20000  2943.60000   0.
    50.74000  2943.40000   0.
    52.28000  2943.00000   0.
    53.81000  2942.50000   0.
    55.35000  2942.10000   0.
    56.89000  2941.60000   0.
    58.43000  2941.00000   0.
    59.96000  2940.60000   0.
    61.50000  2940.10000   0.
    63.04000  2939.50000   0.
    64.58000  2939.10000   0.
    66.11000  2939.20000   0.
    67.65000  2939.20000   0.
    69.19000  2939.10000   0.
    70.73000  2938.90000   0.
    72.26000  2938.60000   0.
    73.80000  2938.30000   0.
    75.34000  2938.50000   0.
    76.88000  2938.70000   0.
    78.41000  2938.60000   0.
    79.95000  2938.80000   0.
    81.49000  2938.90000   0.
    83.03000  2939.10000   0.
    84.56000  2939.10000   0.
     3.42000  2957.55000   0.
     8.97000  2954.51000   0.
    14.52000  2951.86000   0.
    20.07000  2949.38000   0.
    25.63000  2946.59000   0.
    31.18000  2943.67000   0.
    36.73000  2940.99000   0.
    42.28000  2938.62000   0.
    47.83000  2936.87000   0.
    53.39000  2935.46000   0.
    58.94000  2933.69000   0.
    64.49000  2931.95000   0.
    70.04000  2931.81000   0.
    75.60000  2931.36000   0.
    81.15000  2931.70000   0.
     0.51333  2967.60000   0.
     1.02667  2967.10000   0.
     2.05333  2966.03333   0.
     2.56667  2965.46667   0.
     3.59000  2964.63333   0.
     4.10000  2964.36667   0.
     5.12333  2963.83333   0.
     5.63667  2963.56667   0.
     6.66333  2963.06667   0.
     7.17667  2962.83333   0.
     8.20333  2962.23333   0.
     8.71667  2961.86667   0.
     9.74000  2961.23333   0.
    10.25000  2960.96667   0.
    11.27333  2960.46667   0.
    11.78667  2960.23333   0.
    12.81333  2959.76667   0.
    13.32667  2959.53333   0.
    14.35333  2959.10000   0.
    14.86667  2958.90000   0.
    15.89000  2958.50000   0.
    16.40000  2958.30000   0.
    17.42333  2957.83333   0.
    17.93667  2957.56667   0.
    18.96333  2957.06667   0.
    19.47667  2956.83333   0.
    20.50000  2956.33333   0.
    21.01000  2956.06667   0.
    22.03333  2955.53333   0.
    22.54667  2955.26667   0.
    23.57333  2954.76667   0.
    24.08667  2954.53333   0.
    25.11333  2954.03333   0.
    25.62667  2953.76667   0.
    26.65333  2953.26667   0.
    27.16667  2953.03333   0.
    28.19000  2952.50000   0.
    28.70000  2952.20000   0.
    29.72333  2951.63333   0.
    30.23667  2951.36667   0.
    31.26333  2950.80000   0.
    31.77667  2950.50000   0.
    32.80333  2949.96667   0.
    33.31667  2949.73333   0.
    34.34000  2949.23333   0.
    34.85000  2948.96667   0.
    35.87333  2948.50000   0.
    36.38667  2948.30000   0.
    37.41333  2947.83333   0.
    37.92667  2947.56667   0.
    38.95333  2947.10000   0.
    39.46667  2946.90000   0.
    40.49000  2946.50000   0.
    41.00000  2946.30000   0.
    42.02333  2945.90000   0.
    42.53667  2945.70000   0.
    43.56333  2945.36667   0.
    44.07667  2945.23333   0.
    45.10333  2944.90000   0.
    45.61667  2944.70000   0.
    46.64000  2944.36667   0.
    47.15000  2944.23333   0.
    48.17333  2943.93333   0.
    48.68667  2943.76667   0.
    49.71333  2943.53333   0.
    50.22667  2943.46667   0.
    51.25333  2943.26667   0.
    51.76667  2943.13333   0.
    52.79000  2942.83333   0.
    53.30000  2942.66667   0.
    54.32333  2942.36667   0.
    54.83667  2942.23333   0.
    55.86333  2941.93333   0.
    56.37667  2941.76667   0.
    57.40333  2941.40000   0.
    57.91667  2941.20000   0.
    58.94000  2940.86667   0.
    59.45000  2940.73333   0.
    60.47333  2940.43333   0.
    60.98667  2940.26667   0.
    62.01333  2939.90000   0.
    62.52667  2939.70000   0.
    63.55333  2939.36667   0.
    64.06667  2939.23333   0.
    65.34500  2939.15000   0.
    66.88000  2939.20000   0.
    68.42000  2939.15000   0.
    69.70333  2939.03333   0.
    70.21667  2938.96667   0.
    71.24000  2938.80000   0.
    71.75000  2938.70000   0.
    72.77333  2938.50000   0.
    73.28667  2938.40000   0.
    74.31333  2938.36667   0.
    74.82667  2938.43333   0.
    75.85333  2938.56667   0.
    76.36667  2938.63333   0.
    77.64500  2938.65000   0.
    78.92333  2938.66667   0.
    79.43667  2938.73333   0.
    80.72000  2938.85000   0.
    82.00333  2938.96667   0.
    82.51667  2939.03333   0.
    83.79500  2939.10000   0.
     0.08400  2959.57200   0.
     1.19600  2958.89800   0.
     2.30800  2958.22400   0.
     4.53000  2956.94200   0.
     5.64000  2956.33400   0.
     6.75000  2955.72600   0.
     7.86000  2955.11800   0.
    10.35750  2953.84750   0.
    11.74500  2953.18500   0.
    13.13250  2952.52250   0.
    15.90750  2951.24000   0.
    17.29500  2950.62000   0.
    18.68250  2950.00000   0.
    21.18200  2948.82200   0.
    22.29400  2948.26400   0.
    23.40600  2947.70600   0.
    24.51800  2947.14800   0.
    26.74000  2946.00600   0.
    27.85000  2945.42200   0.
    28.96000  2944.83800   0.
    30.07000  2944.25400   0.
    32.56750  2943.00000   0.
    33.95500  2942.33000   0.
    35.34250  2941.66000   0.
    38.11750  2940.39750   0.
    39.50500  2939.80500   0.
    40.89250  2939.21250   0.
    43.66750  2938.18250   0.
    45.05500  2937.74500   0.
    46.44250  2937.30750   0.
    49.22000  2936.51750   0.
    50.61000  2936.16500   0.
    52.00000  2935.81250   0.
    54.77750  2935.01750   0.
    56.16500  2934.57500   0.
    57.55250  2934.13250   0.
    60.32750  2933.25500   0.
    61.71500  2932.82000   0.
    63.10250  2932.38500   0.
    65.87750  2931.91500   0.
    67.26500  2931.88000   0.
    68.65250  2931.84500   0.
    71.43000  2931.69750   0.
    72.82000  2931.58500   0.
    74.21000  2931.47250   0.
    76.98750  2931.44500   0.
    78.37500  2931.53000   0.
    79.76250  2931.61500   0.
    82.53750  2931.75500   0.
    83.92500  2931.81000   0.
     6.60134  2937.05984   0.
    20.80435  2932.52560   0.
     3.78758  2946.36592   0.
    15.48523  2940.98228   0.
    29.30091  2934.50364   0.
    23.90594  2939.46561   0.
    40.87322  2931.62711   0.
     1.03219  2951.87344   0.
    10.83406  2946.32292   0.
    20.42668  2943.42459   0.
    48.80952  2930.83467   0.
    35.50309  2935.49258   0.
     7.54365  2949.73854   0.
    28.57967  2939.84283   0.
    15.90963  2945.83181   0.
    44.30452  2933.27820   0.
    -0.12722  2955.42655   0.
    24.47411  2943.04615   0.
     4.45051  2952.86019   0.
    40.01017  2935.22543   0.
    52.75593  2931.58993   0.
    13.75183  2934.27842   0.
    32.31862  2938.44653   0.
     0.40990  2931.04902   0.
    19.20708  2946.27332   0.
    57.19103  2930.55709   0.
    -0.97178  2947.27328   0.
    19.39705  2939.49643   0.
    11.08068  2950.12444   0.
    32.86215  2930.47012   0.
     7.41320  2941.82707   0.
    13.76382  2948.77946   0.
    27.17579  2942.79365   0.
     7.27112  2952.68663   0.
     2.71547  2954.94653   0.
    22.91159  2945.17994   0.
     2.00816  2941.86911   0.
    24.73355  2934.79062   0.
    47.86753  2934.00196   0.
    50.62083  2933.29089   0.
    60.15732  2930.28185   0.
    37.65425  2937.53830   0.
    44.64836  2929.77041   0.
    10.93416  2939.02064   0.
     4.26476  2949.76242   0.
    36.78915  2931.78219   0.
     7.36345  2946.13476   0.
    30.92470  2941.06806   0.
     6.19921  2931.10091   0.
    35.16618  2938.51604   0.
    16.36294  2929.87801   0.
    13.43632  2943.77014   0.
    42.64967  2935.50406   0.
    26.89596  2931.23775   0.
     1.59760  2936.73753   0.
    17.19200  2948.13905   0.
    -0.61497  2957.60981   0.
    26.49360  2937.36117   0.
     9.56799  2951.50953   0.
    17.55858  2943.77119   0.
    55.26825  2932.33039   0.
    22.03247  2936.46128   0.
    16.10828  2937.24515   0.
    22.48452  2941.40733   0.
    20.86327  2946.43955   0.
    29.71126  2937.35408   0.
    32.14062  2935.59882   0.
    45.26358  2935.44707   0.
    29.19256  2942.39482   0.
    25.22337  2944.48902   0.
    25.77440  2940.40763   0.
     5.12787  2951.33100   0.
     9.72036  2943.07255   0.
     0.63027  2944.64860   0.
     5.15669  2954.13690   0.
    33.80274  2940.56791   0.
     1.57076  2956.41210   0.
     9.31000  2947.97928   0.
     9.87726  2933.53233   0.
    53.60824  2932.85261   0.
    40.63972  2936.89193   0.
    13.47285  2946.23828   0.
    37.68088  2934.75035   0.
    46.32767  2931.88185   0.
    18.64740  2941.16071   0.
    13.09413  2950.32980   0.
    18.01744  2935.92389   0.
     0.55332  2948.73049   0.
     5.35766  2947.55011   0.
    42.44669  2933.52960   0.
    57.75733  2932.24094   0.
    23.68300  2931.83870   0.
    19.94397  2947.74183   0.
    61.81887  2931.15328   0.
[...]
POINT_DATA      1414
CELL_DATA      2568
SCALARS Resistivity(ohm.m) double 1
LOOKUP_TABLE default
          1281.30195          1681.40895          1839.85642          1237.86353           528.82519          1875.62729          1293.82261          1558.05575          1665.87588          1748.52803           739.13191          1774.96734           539.03982          2556.62189          2482.21567          1816.00240          1580.93884           383.77328           585.67214          2365.09135          1178.88743          1751.22854          1345.54810           608.95784          1845.61119           576.03533           214.20372          1902.71831          2270.91346          1809.32778           596.97817           569.32619          1631.20911           393.49480           287.45180          1702.42239           679.36666          1055.38729          1306.15822          1559.42367          1840.41230           628.25480           509.07553          2464.20022           314.40446           414.56925          3432.80606           817.21014           559.62724           887.13608          2968.85629          1868.58813          1072.94634          1590.03155          2241.54714          1018.02662           313.79609          1773.31680           524.59746          1179.12102           529.95190          2248.77859           367.16438          1762.96190           227.26839          1576.40392          1958.25814          1735.87541           243.51137           808.44192           536.51708           728.01419          2140.08103           362.67879           237.34706          3027.38506          1489.56840           397.86062           266.18121          3264.72337          3083.98905          1516.94239           514.28354           441.75093          2114.52523           883.20701           295.84520          2146.55063           816.94832          1702.21022          1177.07572           359.46911          1810.29636           279.47227          1819.01297          2067.86091           515.65659          1340.18245          2334.13888          1121.40745          1547.19906           575.24554           685.38084           665.63866           997.68781          1708.06298           549.04312           979.85868          2143.72075          1422.14878           288.40489          1120.67844          2649.20750          1673.24546          2087.37985          1344.06247          1024.02030          1521.63253           523.83352           267.51513          2149.92161          1457.23908          3355.39864           746.33169           487.21991          1960.88083          2516.58795          3514.06846          1704.48524          1460.80571          1812.30171          1220.67010          1292.32321          2449.77216           830.10531          2838.58163           293.53419          1673.31985          1132.73930          1390.34530          1579.14640           566.33570           683.19013          1371.31194          1638.10010           609.84307           561.04618          1496.21018          1907.63829           637.35388          1900.35725          1952.06173           976.09435           628.14856          2324.57994           216.83036          1659.64632           382.16088          2331.83984          1331.17291          1275.39699           589.14607          2344.70678           538.70443          1769.07775           514.75646          1455.37988          1821.93009          1940.51093          1708.69716           651.54648           766.96436           748.48615           220.52279           497.07166           904.60220           907.89627          3358.82963          2687.00001          1247.04330          2133.51360          1508.20349          1818.07542           777.90696           546.01211          1086.82754           971.77053           731.80369           826.43506          2793.81019          1285.14115          2724.51600           685.98040          3080.01719           229.25301           605.46237          3002.64260          1763.61336          1346.06883           493.27252           220.46101           763.95873          1682.66565          1464.14729          1788.84263          1172.31881          3484.57843          2085.33532           445.01257          1850.25160          1371.01651           628.10944           515.20958           274.27323           641.81048          1306.65430          2550.22384           519.48914          1361.20841           620.31983           823.44710          1439.95171          1227.51636           269.11451           611.97011           727.86367           316.16854           630.32070          1323.46465           333.15638          1059.06515          1985.55732          1457.55589          2835.12574          2502.60903          1680.10434          2657.76959          1529.24316          1494.11661          1422.82347          2942.99214           594.98549          1078.07190           396.49153          2804.85894           202.18793          1714.80783           558.62898           366.47438          1755.69057           201.63627          1891.51175          1687.57183           771.96890          1876.90996          1042.85727           580.34965           806.87526           679.47483          2732.46556           515.98331          1783.19919           436.06909           458.60684           540.22001          1650.71646           299.07808          1833.21171          1011.44921          2081.11790           993.50612          1854.01240          2449.14106          2026.50487           470.40226          1584.44225          1919.02977           430.93101           638.53162           587.68065           420.03518          1414.22626           212.55724          1006.98814           903.26390          1839.91404           564.04962          2520.16705           573.20033           413.26246           899.54728           229.34223          2486.31353           723.19955          1856.20498          2071.58493          1507.23686           613.01854           447.48052           735.39961           969.61675           549.28922          2780.08836          2761.71795           385.23656          1841.65469          1361.13997          1527.32786          1981.64404           311.90717           774.44133           522.69969           260.20680          1929.19157           717.72251           253.15550           541.79348          1192.97589          2642.72274           494.76502          3152.36078           443.77942           918.13723           392.08776           642.24630          1291.62565           548.08535          1417.98918          1169.52601          3104.38793          1673.50574          1843.44982           553.39619          1610.91224           368.82243           466.26370           686.96909           591.24839          3180.31542           649.31659          2179.90618           332.07900          1864.94237           438.14382           637.53111          1811.72664          1318.80400          1075.67290           530.33346          2054.17136           384.88996          2702.75488           867.85354           276.68632           568.29327          2054.97843           578.83790          1598.58259           300.32268           415.29424           766.89583          1528.10487           897.02540           545.89846          1388.92263           494.03327           269.39448          2056.31886          1686.18782          2603.46646           400.00274          1343.78758          1440.39050           990.22518           275.95038          2934.61779           472.17372           482.62061           399.19560          2024.66572          1409.76338           346.07645          1794.82712          2657.50292           207.10935          1380.09546           553.95345          1459.96690           545.70366          1576.98208           765.90490           344.55315          1449.54813          1356.06943           363.16388           757.47197           598.75899          1413.81103          1728.84441          1053.88039           516.81524           671.85713          1421.77554          1460.06829          1406.20992           947.84523           611.75065          1048.05496          1946.09504          1608.68786          1548.27996          2295.69343          1030.20676           611.67187          1099.89859          2693.51001           613.19063           845.48105           644.62523          1667.07938           993.85082           427.81031          2190.03397          1515.96108          1398.15465           249.26343          1671.48344           528.39343          1429.27661           459.98556          1428.76338           432.76397           354.41815          1968.64894          1139.98040          1486.81905          1535.45845           577.47914          1923.77946          1343.38167          3500.29786           622.78646          1290.59150          2149.95388          1255.49901          1194.16467          1326.46046          1310.01496          3579.54390           938.05138          3389.58178          1562.96497          1571.77561          1241.98224          1713.26074           866.26708          2267.85310          1024.79392          1472.45900           392.99177          1789.05379          1402.40984           980.37194          1414.96830          1781.97602           883.61509           825.93090          1255.33089          1742.02717          1624.19136           770.28709          1743.41926           928.76719           260.40005          1771.56742          3396.96567          1098.35155           505.52579          1585.33635           694.92588          1024.41255          1934.28283           612.39264           520.98918          1763.36510          3234.87010          1347.53114           264.90217           633.94537           793.53040          1364.26140          1212.73144          1188.67880          1525.46387           880.24153          1478.47901           833.41345          1182.86692          2502.76636          1764.39182           595.18354           242.12777           537.53121          1400.14470           830.75731          1352.67289          3199.07574          1366.42034           384.11953           590.55558          1369.93328          1337.70015           908.83258           419.22814          2975.62422          1415.17695           384.14820          2984.27001          2334.06970           384.87115          1478.48496          1347.10610          1210.74805          1286.55939          1212.03032           604.18976          1643.91708          1456.12344          1475.72744          1367.82655           776.05992          1710.94920           381.51428          1272.15062           623.83013           385.69577           786.61606          1636.51542          1245.94891          1040.86861           387.26126           391.37534          1630.67861          1288.90363          3836.93061          4642.90713          3362.47846          2194.22282          2220.50252          2140.98397          3517.02899          4514.91423           706.39403          3808.71965           426.52509          1060.64591          1416.55963           670.70747          3590.57048          5436.49235          1238.01603           466.80912          2542.32797          2704.09500           725.61557           837.32203          1320.94321          4474.85768          1454.42953          1822.93968           887.09762           669.79449          1245.39120          1572.46006           532.21230          3959.85937           506.04314          1479.08330          4954.56148          4290.52627          1778.19224          5281.73750           241.84057           855.63673           516.37945          2070.01770          3097.84283          1604.78649          3619.11067          2064.86002          2525.74996           764.82087          1681.90547          1227.46762          1851.05159          8210.58068          3522.61781          1000.41084          4574.51464          4166.17020           771.27381           598.73336          5295.95475          2638.40069          4505.06772          4808.02073          1468.84067           904.91281           644.34058           540.26605           802.20294          4371.31527          1476.60121          1000.26915          1597.24156           278.55613          1007.27010          1634.87676          3760.17474          1097.77318           896.38902           702.16170           781.84530          1615.66364          1518.88174           898.38847          3207.98256          2580.14408          3831.83206          2928.27021          5371.50754          4361.57617          2534.18770           588.66825          3563.41301          1229.17569          1447.58784           641.49737          1320.69681           887.91592           387.06716          5813.01767          4559.76458          1375.03165          1683.10918          3017.18888          2369.26985          2982.34490          2433.80613           929.95795          1546.65257           546.85214           834.10035           421.63270           523.06691           789.67334           624.78499          2449.08092          4491.91310          3522.46792          1349.35691          2033.15679          1377.50310          1770.04687          7388.68149          4313.97819          1849.95087           438.98849           593.75314          5314.17692           667.78779          3614.13506          4290.65886           983.15117          2181.57245           616.65422           897.18680           984.24336          2640.58004          2471.81951          2764.60594           590.62147           539.76852          1066.34949           333.47744           667.80875           475.07035          3768.57920          5033.40740           549.62365          3065.52623           870.86359          2425.24991          1058.25588           699.88401           617.42751           683.55689           651.78647          2250.48126           746.33352          1344.29291           671.66583          2463.84475          1896.71872          4446.74833          2297.63212           633.52421           512.81773           291.11441          2693.90911           757.45860           665.36318          1506.86623          2823.01986           770.17638           798.63389           587.55086          1415.07907           991.50777          1825.12146          1240.68908           585.12440           685.51238           661.54920          2757.18266          1687.16294          1088.97023          7765.11546           980.36244          1048.44004          1029.98038          1865.90839          3017.52563          1505.05077          1399.00020          1873.30534          2272.18688           581.82519          5931.69898          1327.19251          2958.87146           930.65812          1087.70978          3864.06517          2395.88107           646.56207          1197.68869          3437.08632           526.14486           498.09705          1187.01921          2411.59938          5220.72933          1423.50893          6222.98814          1542.30128          1718.94391          1416.54238          1038.51664           506.50663           816.80547          2698.05277           666.15093          3533.04127           605.77888          3095.84409           910.70848           728.57339          1341.47849          1887.43005          2983.88133          4730.99027          2619.35491          1284.34313          1739.68131          1197.02894          5079.47921          6604.02289          2113.73552           970.13841          3267.25316           611.63437          1036.08138           879.12161          2601.86050          1034.42649           904.79748           522.58995           580.08469          3607.95734          1218.70959           735.52644          5783.11001          3987.61969          1802.27465          1408.96396          7850.57217           865.05797          2855.13242          2941.12581          2144.12884          1372.92113          2581.58324          5487.11614          1974.98880           465.75106           649.14560           966.30354          2068.70412          1669.82780           709.33412           662.31631          6218.17142           772.32972          1189.06587          1818.35643          3918.96729          4926.13825           485.98580          1388.62130           837.66006          1153.92507          2215.27540           736.64140           898.68146          1559.14291           824.83198           635.02828           431.61811           830.12499          3380.41630           512.22410          3469.43716          1787.37749          1934.75551          1234.56026          1646.94334          1515.63976           441.89653          4675.73450          1580.45739          2089.06868          2140.27080          2291.62378          4928.28534           835.56139          4947.51124           535.07780           702.75871          1704.63506          1026.89291          6722.91700          2982.81779           964.53464          1739.03845          4194.09628          3414.46641           590.52948          4804.84005          1571.45117          2661.45447          1115.87044          3399.23849          3592.39381           533.57645          3181.31377          3684.25684          2669.28655          5541.18792           860.24800           749.78084          1024.23529          1970.96380           515.45024          7088.00247          3925.90294           600.43090          1509.85011          1791.63536          1969.11753           798.61534          1051.96413         15162.20018           671.88045          2106.91592          1315.20463           518.87653           718.09271          2411.63938          4501.11790          6096.10920          1500.63506          2231.50424          2236.13805          3921.63672           656.34904          1422.08122          2219.37524          1918.15812          5153.24140           553.65909          1028.99387          2724.61490           814.68790          3759.92757          2590.83061          6080.25525          3069.00065          1115.82089          1037.13563           592.40955          5648.97209          6515.26513          1923.80955           287.46148           384.05792           755.83039           835.92118          5452.68280          1201.59569          2280.25387          3038.14977          2372.09793          5600.53812          5384.05980           390.29976           578.20393           764.73827          1142.52935           609.30180          4171.37497          3413.91582          1389.77535           736.19285          1000.76689          2014.75505          3066.51593          2137.59145          2044.64063          1031.44220          3314.28428          6478.68589           515.50062           645.67007          1812.32975          7681.84557          2255.92999          2447.38773          5004.08476           746.45126          1930.04846          4026.83192           530.11358          1395.90720          1032.98533          4645.21951           962.87615          1766.29087          2612.32523          5509.71167          5112.45427          5272.96620          4197.97397          3715.31323          1485.02272           845.64918          2621.58125          8252.35051           646.05192          2416.66383          2759.25681           242.36384          2116.00022          3673.66602          2448.38613           413.95447          3827.39717           804.94570          3401.74429          4090.51797          1814.22989           839.30079          2947.43198          3217.04080          4744.86363          5300.57519          4852.61353           599.79076           590.35585          1394.94871          4790.06715           985.59522          2868.84364           979.86788           609.898