# vtk DataFile Version 3.0
Output from R2
ASCII
DATASET UNSTRUCTURED_GRID
POINTS       1414 double
     0.00000  2968.10000   0.
     1.54000  2966.60000   0.
     3.08000  2964.90000   0.
     4.61000  2964.10000   0.
     6.15000  2963.30000   0.
     7.69000  2962.60000   0.
     9.23000  2961.50000   0.
    10.76000  2960.70000   0.
    12.30000  2960.00000   0.
    13.84000  2959.30000   0.
    15.38000  2958.70000   0.
    16.91000  2958.10000   0.
    18.45000  2957.30000   0.
    19.99000  2956.60000   0.
    21.52000  2955.80000   0.
    23.06000  2955.00000   0.
    24.60000  2954.30000   0.
    26.14000  2953.50000   0.
    27.68000  2952.80000   0.
    29.21000  2951.90000   0.
    30.75000  2951.10000   0.
    32.29000  2950.20000   0.
    33.83000  2949.50000   0.
    35.36000  2948.70000   0.
    36.90000  2948.10000   0.
    38.44000  2947.30000   0.
    39.98000  2946.70000   0.
    41.51000  2946.10000   0.
    43.05000  2945.50000   0.
    44.59000  2945.10000   0.
    46.13000  2944.50000   0.
    47.66000  2944.10000   0.
    49.20000  2943.60000   0.
    50.74000  2943.40000   0.
    52.28000  2943.00000   0.
    53.81000  2942.50000   0.
    55.35000  2942.10000   0.
    56.89000  2941.60000   0.
    58.43000  2941.00000   0.
    59.96000  2940.60000   0.
    61.50000  2940.10000   0.
    63.04000  2939.50000   0.
    64.58000  2939.10000   0.
    66.11000  2939.20000   0.
    67.65000  2939.20000   0.
    69.19000  2939.10000   0.
    70.73000  2938.90000   0.
    72.26000  2938.60000   0.
    73.80000  2938.30000   0.
    75.34000  2938.50000   0.
    76.88000  2938.70000   0.
    78.41000  2938.60000   0.
    79.95000  2938.80000   0.
    81.49000  2938.90000   0.
    83.03000  2939.10000   0.
    84.56000  2939.10000   0.
     3.42000  2957.55000   0.
     8.97000  2954.51000   0.
    14.52000  2951.86000   0.
    20.07000  2949.38000   0.
    25.63000  2946.59000   0.
    31.18000  2943.67000   0.
    36.73000  2940.99000   0.
    42.28000  2938.62000   0.
    47.83000  2936.87000   0.
    53.39000  2935.46000   0.
    58.94000  2933.69000   0.
    64.49000  2931.95000   0.
    70.04000  2931.81000   0.
    75.60000  2931.36000   0.
    81.15000  2931.70000   0.
     0.51333  2967.60000   0.
     1.02667  2967.10000   0.
     2.05333  2966.03333   0.
     2.56667  2965.46667   0.
     3.59000  2964.63333   0.
     4.10000  2964.36667   0.
     5.12333  2963.83333   0.
     5.63667  2963.56667   0.
     6.66333  2963.06667   0.
     7.17667  2962.83333   0.
     8.20333  2962.23333   0.
     8.71667  2961.86667   0.
     9.74000  2961.23333   0.
    10.25000  2960.96667   0.
    11.27333  2960.46667   0.
    11.78667  2960.23333   0.
    12.81333  2959.76667   0.
    13.32667  2959.53333   0.
    14.35333  2959.10000   0.
    14.86667  2958.90000   0.
    15.89000  2958.50000   0.
    16.40000  2958.30000   0.
    17.42333  2957.83333   0.
    17.93667  2957.56667   0.
    18.96333  2957.06667   0.
    19.47667  2956.83333   0.
    20.50000  2956.33333   0.
    21.01000  2956.06667   0.
    22.03333  2955.53333   0.
    22.54667  2955.26667   0.
    23.57333  2954.76667   0.
    24.08667  2954.53333   0.
    25.11333  2954.03333   0.
    25.62667  2953.76667   0.
    26.65333  2953.26667   0.
    27.16667  2953.03333   0.
    28.19000  2952.50000   0.
    28.70000  2952.20000   0.
    29.72333  2951.63333   0.
    30.23667  2951.36667   0.
    31.26333  2950.80000   0.
    31.77667  2950.50000   0.
    32.80333  2949.96667   0.
    33.31667  2949.73333   0.
    34.34000  2949.23333   0.
    34.85000  2948.96667   0.
    35.87333  2948.50000   0.
    36.38667  2948.30000   0.
    37.41333  2947.83333   0.
    37.92667  2947.56667   0.
    38.95333  2947.10000   0.
    39.46667  2946.90000   0.
    40.49000  2946.50000   0.
    41.00000  2946.30000   0.
    42.02333  2945.90000   0.
    42.53667  2945.70000   0.
    43.56333  2945.36667   0.
    44.07667  2945.23333   0.
    45.10333  2944.90000   0.
    45.61667  2944.70000   0.
    46.64000  2944.36667   0.
    47.15000  2944.23333   0.
    48.17333  2943.93333   0.
    48.68667  2943.76667   0.
    49.71333  2943.53333   0.
    50.22667  2943.46667   0.
    51.25333  2943.26667   0.
    51.76667  2943.13333   0.
    52.79000  2942.83333   0.
    53.30000  2942.66667   0.
    54.32333  2942.36667   0.
    54.83667  2942.23333   0.
    55.86333  2941.93333   0.
    56.37667  2941.76667   0.
    57.40333  2941.40000   0.
    57.91667  2941.20000   0.
    58.94000  2940.86667   0.
    59.45000  2940.73333   0.
    60.47333  2940.43333   0.
    60.98667  2940.26667   0.
    62.01333  2939.90000   0.
    62.52667  2939.70000   0.
    63.55333  2939.36667   0.
    64.06667  2939.23333   0.
    65.34500  2939.15000   0.
    66.88000  2939.20000   0.
    68.42000  2939.15000   0.
    69.70333  2939.03333   0.
    70.21667  2938.96667   0.
    71.24000  2938.80000   0.
    71.75000  2938.70000   0.
    72.77333  2938.50000   0.
    73.28667  2938.40000   0.
    74.31333  2938.36667   0.
    74.82667  2938.43333   0.
    75.85333  2938.56667   0.
    76.36667  2938.63333   0.
    77.64500  2938.65000   0.
    78.92333  2938.66667   0.
    79.43667  2938.73333   0.
    80.72000  2938.85000   0.
    82.00333  2938.96667   0.
    82.51667  2939.03333   0.
    83.79500  2939.10000   0.
     0.08400  2959.57200   0.
     1.19600  2958.89800   0.
     2.30800  2958.22400   0.
     4.53000  2956.94200   0.
     5.64000  2956.33400   0.
     6.75000  2955.72600   0.
     7.86000  2955.11800   0.
    10.35750  2953.84750   0.
    11.74500  2953.18500   0.
    13.13250  2952.52250   0.
    15.90750  2951.24000   0.
    17.29500  2950.62000   0.
    18.68250  2950.00000   0.
    21.18200  2948.82200   0.
    22.29400  2948.26400   0.
    23.40600  2947.70600   0.
    24.51800  2947.14800   0.
    26.74000  2946.00600   0.
    27.85000  2945.42200   0.
    28.96000  2944.83800   0.
    30.07000  2944.25400   0.
    32.56750  2943.00000   0.
    33.95500  2942.33000   0.
    35.34250  2941.66000   0.
    38.11750  2940.39750   0.
    39.50500  2939.80500   0.
    40.89250  2939.21250   0.
    43.66750  2938.18250   0.
    45.05500  2937.74500   0.
    46.44250  2937.30750   0.
    49.22000  2936.51750   0.
    50.61000  2936.16500   0.
    52.00000  2935.81250   0.
    54.77750  2935.01750   0.
    56.16500  2934.57500   0.
    57.55250  2934.13250   0.
    60.32750  2933.25500   0.
    61.71500  2932.82000   0.
    63.10250  2932.38500   0.
    65.87750  2931.91500   0.
    67.26500  2931.88000   0.
    68.65250  2931.84500   0.
    71.43000  2931.69750   0.
    72.82000  2931.58500   0.
    74.21000  2931.47250   0.
    76.98750  2931.44500   0.
    78.37500  2931.53000   0.
    79.76250  2931.61500   0.
    82.53750  2931.75500   0.
    83.92500  2931.81000   0.
     6.60134  2937.05984   0.
    20.80435  2932.52560   0.
     3.78758  2946.36592   0.
    15.48523  2940.98228   0.
    29.30091  2934.50364   0.
    23.90594  2939.46561   0.
    40.87322  2931.62711   0.
     1.03219  2951.87344   0.
    10.83406  2946.32292   0.
    20.42668  2943.42459   0.
    48.80952  2930.83467   0.
    35.50309  2935.49258   0.
     7.54365  2949.73854   0.
    28.57967  2939.84283   0.
    15.90963  2945.83181   0.
    44.30452  2933.27820   0.
    -0.12722  2955.42655   0.
    24.47411  2943.04615   0.
     4.45051  2952.86019   0.
    40.01017  2935.22543   0.
    52.75593  2931.58993   0.
    13.75183  2934.27842   0.
    32.31862  2938.44653   0.
     0.40990  2931.04902   0.
    19.20708  2946.27332   0.
    57.19103  2930.55709   0.
    -0.97178  2947.27328   0.
    19.39705  2939.49643   0.
    11.08068  2950.12444   0.
    32.86215  2930.47012   0.
     7.41320  2941.82707   0.
    13.76382  2948.77946   0.
    27.17579  2942.79365   0.
     7.27112  2952.68663   0.
     2.71547  2954.94653   0.
    22.91159  2945.17994   0.
     2.00816  2941.86911   0.
    24.73355  2934.79062   0.
    47.86753  2934.00196   0.
    50.62083  2933.29089   0.
    60.15732  2930.28185   0.
    37.65425  2937.53830   0.
    44.64836  2929.77041   0.
    10.93416  2939.02064   0.
     4.26476  2949.76242   0.
    36.78915  2931.78219   0.
     7.36345  2946.13476   0.
    30.92470  2941.06806   0.
     6.19921  2931.10091   0.
    35.16618  2938.51604   0.
    16.36294  2929.87801   0.
    13.43632  2943.77014   0.
    42.64967  2935.50406   0.
    26.89596  2931.23775   0.
     1.59760  2936.73753   0.
    17.19200  2948.13905   0.
    -0.61497  2957.60981   0.
    26.49360  2937.36117   0.
     9.56799  2951.50953   0.
    17.55858  2943.77119   0.
    55.26825  2932.33039   0.
    22.03247  2936.46128   0.
    16.10828  2937.24515   0.
    22.48452  2941.40733   0.
    20.86327  2946.43955   0.
    29.71126  2937.35408   0.
    32.14062  2935.59882   0.
    45.26358  2935.44707   0.
    29.19256  2942.39482   0.
    25.22337  2944.48902   0.
    25.77440  2940.40763   0.
     5.12787  2951.33100   0.
     9.72036  2943.07255   0.
     0.63027  2944.64860   0.
     5.15669  2954.13690   0.
    33.80274  2940.56791   0.
     1.57076  2956.41210   0.
     9.31000  2947.97928   0.
     9.87726  2933.53233   0.
    53.60824  2932.85261   0.
    40.63972  2936.89193   0.
    13.47285  2946.23828   0.
    37.68088  2934.75035   0.
    46.32767  2931.88185   0.
    18.64740  2941.16071   0.
    13.09413  2950.32980   0.
    18.01744  2935.92389   0.
     0.55332  2948.73049   0.
     5.35766  2947.55011   0.
    42.44669  2933.52960   0.
    57.75733  2932.24094   0.
    23.68300  2931.83870   0.
    19.94397  2947.74183   0.
    61.81887  2931.15328   0.
[...]
POINT_DATA      1414
CELL_DATA      2568
SCALARS Resistivity(ohm.m) double 1
LOOKUP_TABLE default
          1224.24812          1717.78160          1943.25313          1185.84873           529.89068          1972.64370          1271.43922          1479.25858          1691.03517          1814.42474           726.52484          1812.24260           546.03721          2601.78549          2525.04658          1787.34365          1605.00008           406.31486           552.28755          2388.64141          1181.93568          1748.36699          1324.84376           591.51495          1898.36875           567.56007           215.98860          1998.14576          2300.96618          1919.03767           565.80690           566.77601          1659.04812           402.05972           309.76433          1654.19368           689.07724          1003.17625          1286.09331          1519.74931          1871.36260           629.68157           491.80471          2494.29701           313.98898           425.39438          3414.67051           792.73365           565.30885           906.09459          2989.28620          1916.33931          1011.68540          1615.63177          2259.48360           970.82585           324.57260          1883.47641           506.48504          1103.73550           530.40648          2305.09430           391.11522          1732.18021           227.45906          1596.80607          2043.12686          1800.66083           248.46607           784.89267           533.63533           737.92139          2184.70892           372.96726           249.77638          3000.19604          1443.62512           413.64671           271.75354          3269.64315          3105.04885          1427.47893           489.06475           446.31044          2172.51708           857.86989           302.25027          2179.00384           828.94916          1744.43031          1114.04651           354.41897          1914.74630           291.71785          1781.91512          2118.46340           510.54688          1249.77154          2382.02172          1065.24914          1537.99223           561.95840           660.29315           661.38253           962.01640          1738.60700           542.23092           931.90940          2141.09342          1327.64652           312.26273          1099.28476          2661.44450          1685.46750          2126.19620          1349.30513          1011.63254          1536.25348           497.23041           275.92866          2201.38577          1421.24868          3320.24697           724.18305           486.60730          2038.23825          2536.92801          3448.36606          1689.69858          1401.71533          1894.96458          1178.04299          1284.17129          2504.30431           802.30887          2823.74868           311.12674          1705.08164          1080.67144          1399.12916          1594.28257           551.96822           654.96986          1321.22709          1668.66027           591.05427           533.45028          1484.92408          1968.87661           610.48269          1995.21437          1999.30517           928.82241           633.56136          2385.45570           225.73742          1570.98231           395.02726          2366.55397          1326.81447          1187.90915           566.45943          2366.57761           531.22365          1874.16895           520.63056          1414.27976          1771.10324          1973.14852          1747.65491           653.13615           745.59105           719.57590           226.10437           468.74375           881.21417           875.19442          3284.27357          2687.43126          1169.66879          2207.12880          1404.40974          1890.32775           749.39955           540.90282          1040.19338           935.24310           699.02983           810.38011          2820.17688          1271.22414          2760.89447           655.26852          3095.73932           230.94339           572.36965          3027.72548          1844.92371          1291.38320           466.15427           227.38243           766.18836          1673.16633          1473.74182          1734.67145          1121.92892          3401.20984          2141.06564           424.06808          1941.49921          1358.14030           610.64546           483.58774           288.40447           612.40433          1255.77222          2583.49568           520.92973          1296.13392           587.51674           823.90536          1352.53973          1156.05895           287.79127           604.94426           701.59068           320.52125           602.31628          1327.73539           321.86133          1015.47760          1975.88216          1434.45264          2815.44671          2544.53642          1599.66014          2694.62214          1423.33092          1409.09883          1400.95484          2959.05911           595.10514          1037.11565           398.11389          2840.45439           210.14926          1760.15676           545.42320           385.55799          1842.55554           206.93104          1892.39732          1631.12789           738.97559          1949.33520           987.93040           585.04362           772.24944           666.30024          2720.92020           523.81370          1880.31893           442.12724           448.71378           519.05802          1576.39478           314.18116          1931.00058           976.83490          2146.92785           954.01741          1893.12057          2466.67316          2111.76350           475.68928          1591.52184          1985.92016           449.19261           645.65529           593.01501           444.62665          1422.59099           221.93146           957.35138           868.99891          1939.21301           532.01039          2546.25639           572.84563           413.59871           884.36975           244.09721          2541.04008           704.90497          1920.84172          2142.31562          1439.58486           585.35032           445.21249           700.78640           977.80832           520.30526          2804.24408          2776.14625           394.94029          1881.31117          1355.56416          1537.05783          2019.77983           319.37241           745.93669           529.47195           260.65281          2011.13512           713.07929           272.33321           537.34732          1127.29365          2639.11910           494.90418          3100.55170           423.00996           888.74996           392.50536           606.69488          1265.68747           531.40143          1428.37925          1127.31727          3085.51294          1706.14737          1940.59093           538.86532          1535.44661           354.09456           440.87279           652.53418           582.36954          3131.90030           617.99069          2249.21721           348.71033          1954.88730           444.17193           611.75557          1853.84649          1234.81216          1032.17338           519.97142          2136.63318           396.79668          2728.03665           832.41871           303.43086           533.46637          2126.22649           555.86515          1541.70433           297.19029           401.29495           761.23183          1548.14457           861.69212           539.54380          1388.83525           495.38019           293.81959          2114.67138          1653.52257          2605.94365           424.44223          1344.34444          1436.43769           965.96274           270.80619          2939.11134           447.91270           493.50985           409.82868          2089.19455          1396.93137           367.73521          1828.81186          2700.68544           212.75033          1383.13618           550.22263          1356.12679           512.14941          1486.01862           749.91582           333.83273          1460.74196          1335.52150           368.65846           745.40580           592.02748          1332.83291          1766.76995           996.31559           522.50240           659.95778          1383.57073          1473.44533          1357.80192           906.05679           594.32403          1001.97113          2030.69914          1590.09047          1491.79420          2356.53769           979.60172           596.13192          1099.52696          2707.76763           618.91213           820.24066           640.08487          1640.97987           946.22239           407.45273          2263.00304          1422.45494          1329.44317           248.53801          1596.31054           530.78677          1431.26724           464.23254          1369.52882           441.24315           365.70900          1938.79495          1073.74502          1485.04042          1492.76509           581.10879          1965.82050          1280.39293          3411.97060           600.80045          1250.71376          2131.57526          1221.43949          1119.74423          1328.75658          1275.68644          3513.61701           897.94678          3321.53231          1539.43503          1473.52491          1190.50651          1637.51628           831.68634          2310.80949           982.54202          1372.69679           408.73795          1846.68748          1372.63466           940.29413          1318.21399          1881.57243           846.61904           805.53531          1174.44636          1680.62393          1590.00404           785.60872          1790.91685           887.67325           256.46851          1830.58841          3333.17702          1035.72743           482.40192          1488.58190           682.45572          1040.29957          1902.23271           576.90656           519.38049          1854.08796          3250.62419          1253.87990           287.01669           639.22384           767.58862          1335.15340          1134.30045          1149.45732          1544.22658           843.23665          1493.88455           798.72316          1115.48059          2512.43878          1811.27337           598.95330           258.37740           540.85226          1320.74520           797.32857          1273.79649          3155.02979          1319.58688           369.74157           554.88453          1272.16300          1266.84385           870.43895           409.72943          2941.85502          1425.67620           373.00451          2952.59969          2397.85508           404.30513          1419.92905          1310.18797          1155.11583          1197.48911          1149.66706           585.39875          1557.71259          1469.84800          1490.87906          1283.82760           742.26259          1653.54341           409.25800          1203.29028           611.21178           406.15178           753.86197          1639.35058          1178.57614          1001.21088           413.03202           386.91741          1645.10328          1223.18152          3882.51726          4649.08857          3407.82844          2107.07891          2128.78548          2131.12164          3401.97572          4360.47514           670.30731          3638.92690           416.79789          1064.08265          1413.88078           654.78804          3805.82715          5474.83569          1230.42832           457.82513          2443.23878          2764.23443           738.73216           834.97526          1316.21515          4295.20748          1484.80611          1949.35364           906.15407           641.73321          1248.51452          1573.04312           519.87122          3904.25609           529.43934          1443.43567          4778.57883          4153.60507          1801.54751          5263.87365           247.44413           856.76025           524.83425          2033.21801          3119.56403          1649.58477          3493.83102          2058.88442          2527.06174           769.18603          1666.61736          1259.73530          1893.87805          8281.03943          3486.72452           996.97293          4390.73257          4071.63319           759.92845           634.72320          5362.93687          2552.39285          4341.89406          4771.28483          1470.28316           881.63530           634.38261           530.12085           782.28780          4252.71373          1554.50495           995.66596          1578.27686           283.96006           993.85490          1635.56849          3747.56439          1110.18902           863.11264           698.78494           792.13680          1609.86986          1517.88644           900.88362          3288.08255          2507.58111          3771.46702          3126.47226          5214.45351          4295.58724          2533.13669           579.43418          3781.02815          1205.91549          1482.30870           663.39460          1319.16097           883.51661           376.99007          5660.94544          4172.30271          1378.10365          1696.78350          3064.17691          2299.25559          3050.28848          2650.10159           913.91777          1450.52070           555.58517           806.93198           415.87000           543.77851           795.14433           628.44461          2396.68976          4395.44803          3679.85865          1386.50024          2101.34673          1378.58963          1710.38296          7339.58198          4233.43221          1822.71800           430.15932           589.52715          5335.68608           652.35697          3716.71449          4291.66674           973.85814          2230.85207           633.59530           896.45034           981.35798          2546.25689          2432.63145          2782.88239           589.68408           531.66452          1053.12676           332.71809           644.56329           466.94171          3730.10514          5106.86510           535.08164          2933.80572           847.68679          2391.25720          1089.73238           674.24017           610.86646           687.57591           636.51017          2234.35059           745.48386          1316.22056           670.76120          2413.04297          1879.05711          4271.24775          2407.37628           635.30119           528.46862           295.29084          2856.91899           733.35432           685.33003          1497.55485          2760.01441           734.09258           799.39880           558.76152          1408.79784          1000.91744          1774.08656          1293.79424           582.77702           683.11087           674.30650          2763.35676          1851.54150          1095.91791          7743.69170           980.30476           978.10473          1012.06707          1756.78485          2883.26638          1485.60054          1411.85484          1758.26757          2246.63212           614.03166          6249.58476          1395.61160          2986.06475           879.41881          1067.88949          3810.15468          2479.03507           679.83324          1188.00128          3444.03808           517.02806           512.45647          1180.33333          2501.49870          5120.32721          1463.65793          6138.32456          1474.34764          1668.74218          1418.82948          1062.48460           486.27275           802.06919          2788.00073           668.46715          3649.66599           599.25556          3102.25612           858.67266           716.47736          1325.54343          1971.99861          3094.36056          4787.60848          2543.84957          1346.66057          1794.71301          1208.72302          5281.88829          6587.66557          2098.98535           968.93627          3147.04931           604.11118          1029.22109           875.83320          2577.34711          1033.79094           927.38210           558.61498           576.33173          3600.03181          1153.51029           749.62296          5928.91469          4381.40470          2017.74994          1388.07640          7720.67209           848.90528          2700.87039          2964.94670          2147.32123          1289.83201          2582.80790          5532.42967          2002.62151           444.29290           664.90566           950.60535          1971.90828          1745.58148           685.97108           660.92723          6342.46647           773.36194          1154.73646          1912.91567          3845.63889          4962.13809           479.57456          1387.21659           815.67139          1143.87800          2115.04436           717.36365           886.63752          1592.10925           827.77881           613.88434           427.98755           815.69868          3416.45993           523.60118          3482.14790          1800.80383          1936.12909          1232.93871          1618.84394          1508.73510           436.35139          4310.02674          1602.92582          2080.31995          2091.62027          2247.15860          4893.22309           851.54393          4766.54220           547.40286           690.99861          1660.52137          1037.12872          6671.69155          2996.82269           924.22996          1689.04389          4599.40089          3408.95413           612.18520          5068.94904          1530.53954          2569.74530          1074.04146          3391.37698          3601.52256           542.37372          3136.56583          3609.43105          2749.54644          5429.92190           839.67007           781.75144          1034.18810          2058.00362           509.60538          7231.46809          3918.50048           623.39127          1498.88933          1810.27275          2030.39893           773.90910          1040.52432         15397.33057           698.97976          2108.01248          1300.99673           504.80381           740.76299          2458.15466          4566.80462          5922.38490          1603.94625          2273.36078          2202.99669          3833.97777           692.45787          1397.80708          2193.19102          1924.23552          5207.73973           564.10794          1033.11467          2769.35667           796.57852          3723.89913          2442.80400          5941.75981          2798.78062          1157.76831          1063.78326           583.91845          5535.76231          6399.74062          1864.33346           278.51832           385.12652           758.74540           795.02922          5374.26749          1251.34131          2315.99928          3198.98998          2415.48943          5505.57401          5278.24744           374.98040           591.04955           744.59709          1171.40871           628.50743          4108.36158          3339.09378          1350.69801           708.17781           976.24720          2057.16385          3025.94950          2107.53147          2063.13742           977.53642          3528.22051          6612.35797           507.59161           648.98739          1808.24673          7643.16196          2082.78634          2497.97841          4951.70147           734.63684          1895.16621          3969.53581           515.26890          1395.40775          1008.33827          4752.82559           952.34912          1741.65444          2610.91251          5680.98576          5019.24673          5133.11964          4061.90575          3738.82846          1620.90676           855.92114          2724.37856          8388.59793           631.40337          2469.03259          2632.32658           243.33332          2198.18450          3504.24222          2449.97936           423.00155          3943.33576           830.11207          3383.51384          4113.95652          1905.95564           802.17306          2961.68778          3286.50230          4822.67127          5255.53560          4688.18455           629.49201           598.40147          1318.91548          4919.68356           989.95598          2680.21200           927.48248           598.018