# vtk DataFile Version 3.0
Output from R2
ASCII
DATASET UNSTRUCTURED_GRID
POINTS       1414 double
     0.00000  2968.10000   0.
     1.54000  2966.60000   0.
     3.08000  2964.90000   0.
     4.61000  2964.10000   0.
     6.15000  2963.30000   0.
     7.69000  2962.60000   0.
     9.23000  2961.50000   0.
    10.76000  2960.70000   0.
    12.30000  2960.00000   0.
    13.84000  2959.30000   0.
    15.38000  2958.70000   0.
    16.91000  2958.10000   0.
    18.45000  2957.30000   0.
    19.99000  2956.60000   0.
    21.52000  2955.80000   0.
    23.06000  2955.00000   0.
    24.60000  2954.30000   0.
    26.14000  2953.50000   0.
    27.68000  2952.80000   0.
    29.21000  2951.90000   0.
    30.75000  2951.10000   0.
    32.29000  2950.20000   0.
    33.83000  2949.50000   0.
    35.36000  2948.70000   0.
    36.90000  2948.10000   0.
    38.44000  2947.30000   0.
    39.98000  2946.70000   0.
    41.51000  2946.10000   0.
    43.05000  2945.50000   0.
    44.59000  2945.10000   0.
    46.13000  2944.50000   0.
    47.66000  2944.10000   0.
    49.20000  2943.60000   0.
    50.74000  2943.40000   0.
    52.28000  2943.00000   0.
    53.81000  2942.50000   0.
    55.35000  2942.10000   0.
    56.89000  2941.60000   0.
    58.43000  2941.00000   0.
    59.96000  2940.60000   0.
    61.50000  2940.10000   0.
    63.04000  2939.50000   0.
    64.58000  2939.10000   0.
    66.11000  2939.20000   0.
    67.65000  2939.20000   0.
    69.19000  2939.10000   0.
    70.73000  2938.90000   0.
    72.26000  2938.60000   0.
    73.80000  2938.30000   0.
    75.34000  2938.50000   0.
    76.88000  2938.70000   0.
    78.41000  2938.60000   0.
    79.95000  2938.80000   0.
    81.49000  2938.90000   0.
    83.03000  2939.10000   0.
    84.56000  2939.10000   0.
     3.42000  2957.55000   0.
     8.97000  2954.51000   0.
    14.52000  2951.86000   0.
    20.07000  2949.38000   0.
    25.63000  2946.59000   0.
    31.18000  2943.67000   0.
    36.73000  2940.99000   0.
    42.28000  2938.62000   0.
    47.83000  2936.87000   0.
    53.39000  2935.46000   0.
    58.94000  2933.69000   0.
    64.49000  2931.95000   0.
    70.04000  2931.81000   0.
    75.60000  2931.36000   0.
    81.15000  2931.70000   0.
     0.51333  2967.60000   0.
     1.02667  2967.10000   0.
     2.05333  2966.03333   0.
     2.56667  2965.46667   0.
     3.59000  2964.63333   0.
     4.10000  2964.36667   0.
     5.12333  2963.83333   0.
     5.63667  2963.56667   0.
     6.66333  2963.06667   0.
     7.17667  2962.83333   0.
     8.20333  2962.23333   0.
     8.71667  2961.86667   0.
     9.74000  2961.23333   0.
    10.25000  2960.96667   0.
    11.27333  2960.46667   0.
    11.78667  2960.23333   0.
    12.81333  2959.76667   0.
    13.32667  2959.53333   0.
    14.35333  2959.10000   0.
    14.86667  2958.90000   0.
    15.89000  2958.50000   0.
    16.40000  2958.30000   0.
    17.42333  2957.83333   0.
    17.93667  2957.56667   0.
    18.96333  2957.06667   0.
    19.47667  2956.83333   0.
    20.50000  2956.33333   0.
    21.01000  2956.06667   0.
    22.03333  2955.53333   0.
    22.54667  2955.26667   0.
    23.57333  2954.76667   0.
    24.08667  2954.53333   0.
    25.11333  2954.03333   0.
    25.62667  2953.76667   0.
    26.65333  2953.26667   0.
    27.16667  2953.03333   0.
    28.19000  2952.50000   0.
    28.70000  2952.20000   0.
    29.72333  2951.63333   0.
    30.23667  2951.36667   0.
    31.26333  2950.80000   0.
    31.77667  2950.50000   0.
    32.80333  2949.96667   0.
    33.31667  2949.73333   0.
    34.34000  2949.23333   0.
    34.85000  2948.96667   0.
    35.87333  2948.50000   0.
    36.38667  2948.30000   0.
    37.41333  2947.83333   0.
    37.92667  2947.56667   0.
    38.95333  2947.10000   0.
    39.46667  2946.90000   0.
    40.49000  2946.50000   0.
    41.00000  2946.30000   0.
    42.02333  2945.90000   0.
    42.53667  2945.70000   0.
    43.56333  2945.36667   0.
    44.07667  2945.23333   0.
    45.10333  2944.90000   0.
    45.61667  2944.70000   0.
    46.64000  2944.36667   0.
    47.15000  2944.23333   0.
    48.17333  2943.93333   0.
    48.68667  2943.76667   0.
    49.71333  2943.53333   0.
    50.22667  2943.46667   0.
    51.25333  2943.26667   0.
    51.76667  2943.13333   0.
    52.79000  2942.83333   0.
    53.30000  2942.66667   0.
    54.32333  2942.36667   0.
    54.83667  2942.23333   0.
    55.86333  2941.93333   0.
    56.37667  2941.76667   0.
    57.40333  2941.40000   0.
    57.91667  2941.20000   0.
    58.94000  2940.86667   0.
    59.45000  2940.73333   0.
    60.47333  2940.43333   0.
    60.98667  2940.26667   0.
    62.01333  2939.90000   0.
    62.52667  2939.70000   0.
    63.55333  2939.36667   0.
    64.06667  2939.23333   0.
    65.34500  2939.15000   0.
    66.88000  2939.20000   0.
    68.42000  2939.15000   0.
    69.70333  2939.03333   0.
    70.21667  2938.96667   0.
    71.24000  2938.80000   0.
    71.75000  2938.70000   0.
    72.77333  2938.50000   0.
    73.28667  2938.40000   0.
    74.31333  2938.36667   0.
    74.82667  2938.43333   0.
    75.85333  2938.56667   0.
    76.36667  2938.63333   0.
    77.64500  2938.65000   0.
    78.92333  2938.66667   0.
    79.43667  2938.73333   0.
    80.72000  2938.85000   0.
    82.00333  2938.96667   0.
    82.51667  2939.03333   0.
    83.79500  2939.10000   0.
     0.08400  2959.57200   0.
     1.19600  2958.89800   0.
     2.30800  2958.22400   0.
     4.53000  2956.94200   0.
     5.64000  2956.33400   0.
     6.75000  2955.72600   0.
     7.86000  2955.11800   0.
    10.35750  2953.84750   0.
    11.74500  2953.18500   0.
    13.13250  2952.52250   0.
    15.90750  2951.24000   0.
    17.29500  2950.62000   0.
    18.68250  2950.00000   0.
    21.18200  2948.82200   0.
    22.29400  2948.26400   0.
    23.40600  2947.70600   0.
    24.51800  2947.14800   0.
    26.74000  2946.00600   0.
    27.85000  2945.42200   0.
    28.96000  2944.83800   0.
    30.07000  2944.25400   0.
    32.56750  2943.00000   0.
    33.95500  2942.33000   0.
    35.34250  2941.66000   0.
    38.11750  2940.39750   0.
    39.50500  2939.80500   0.
    40.89250  2939.21250   0.
    43.66750  2938.18250   0.
    45.05500  2937.74500   0.
    46.44250  2937.30750   0.
    49.22000  2936.51750   0.
    50.61000  2936.16500   0.
    52.00000  2935.81250   0.
    54.77750  2935.01750   0.
    56.16500  2934.57500   0.
    57.55250  2934.13250   0.
    60.32750  2933.25500   0.
    61.71500  2932.82000   0.
    63.10250  2932.38500   0.
    65.87750  2931.91500   0.
    67.26500  2931.88000   0.
    68.65250  2931.84500   0.
    71.43000  2931.69750   0.
    72.82000  2931.58500   0.
    74.21000  2931.47250   0.
    76.98750  2931.44500   0.
    78.37500  2931.53000   0.
    79.76250  2931.61500   0.
    82.53750  2931.75500   0.
    83.92500  2931.81000   0.
     6.60134  2937.05984   0.
    20.80435  2932.52560   0.
     3.78758  2946.36592   0.
    15.48523  2940.98228   0.
    29.30091  2934.50364   0.
    23.90594  2939.46561   0.
    40.87322  2931.62711   0.
     1.03219  2951.87344   0.
    10.83406  2946.32292   0.
    20.42668  2943.42459   0.
    48.80952  2930.83467   0.
    35.50309  2935.49258   0.
     7.54365  2949.73854   0.
    28.57967  2939.84283   0.
    15.90963  2945.83181   0.
    44.30452  2933.27820   0.
    -0.12722  2955.42655   0.
    24.47411  2943.04615   0.
     4.45051  2952.86019   0.
    40.01017  2935.22543   0.
    52.75593  2931.58993   0.
    13.75183  2934.27842   0.
    32.31862  2938.44653   0.
     0.40990  2931.04902   0.
    19.20708  2946.27332   0.
    57.19103  2930.55709   0.
    -0.97178  2947.27328   0.
    19.39705  2939.49643   0.
    11.08068  2950.12444   0.
    32.86215  2930.47012   0.
     7.41320  2941.82707   0.
    13.76382  2948.77946   0.
    27.17579  2942.79365   0.
     7.27112  2952.68663   0.
     2.71547  2954.94653   0.
    22.91159  2945.17994   0.
     2.00816  2941.86911   0.
    24.73355  2934.79062   0.
    47.86753  2934.00196   0.
    50.62083  2933.29089   0.
    60.15732  2930.28185   0.
    37.65425  2937.53830   0.
    44.64836  2929.77041   0.
    10.93416  2939.02064   0.
     4.26476  2949.76242   0.
    36.78915  2931.78219   0.
     7.36345  2946.13476   0.
    30.92470  2941.06806   0.
     6.19921  2931.10091   0.
    35.16618  2938.51604   0.
    16.36294  2929.87801   0.
    13.43632  2943.77014   0.
    42.64967  2935.50406   0.
    26.89596  2931.23775   0.
     1.59760  2936.73753   0.
    17.19200  2948.13905   0.
    -0.61497  2957.60981   0.
    26.49360  2937.36117   0.
     9.56799  2951.50953   0.
    17.55858  2943.77119   0.
    55.26825  2932.33039   0.
    22.03247  2936.46128   0.
    16.10828  2937.24515   0.
    22.48452  2941.40733   0.
    20.86327  2946.43955   0.
    29.71126  2937.35408   0.
    32.14062  2935.59882   0.
    45.26358  2935.44707   0.
    29.19256  2942.39482   0.
    25.22337  2944.48902   0.
    25.77440  2940.40763   0.
     5.12787  2951.33100   0.
     9.72036  2943.07255   0.
     0.63027  2944.64860   0.
     5.15669  2954.13690   0.
    33.80274  2940.56791   0.
     1.57076  2956.41210   0.
     9.31000  2947.97928   0.
     9.87726  2933.53233   0.
    53.60824  2932.85261   0.
    40.63972  2936.89193   0.
    13.47285  2946.23828   0.
    37.68088  2934.75035   0.
    46.32767  2931.88185   0.
    18.64740  2941.16071   0.
    13.09413  2950.32980   0.
    18.01744  2935.92389   0.
     0.55332  2948.73049   0.
     5.35766  2947.55011   0.
    42.44669  2933.52960   0.
    57.75733  2932.24094   0.
    23.68300  2931.83870   0.
    19.94397  2947.74183   0.
    61.81887  2931.15328   0.
[...]
POINT_DATA      1414
CELL_DATA      2568
SCALARS Resistivity(ohm.m) double 1
LOOKUP_TABLE default
          1097.11905          1695.36115          2245.33379          1052.69654           549.56846          2201.26107          1291.63115          1462.10112          1642.23091          1997.64987           804.43863          1957.48675           623.51818          2333.00190          2300.22572          1823.37783          1539.71405           477.82660           466.74749          2360.41074          1210.50260          1833.68179          1217.43321           608.39235          1833.72130           481.17562           287.11461          2167.82843          2244.23857          2221.11400           491.36233           495.05827          1615.66747           411.23483           382.19265          1643.28852           765.88982           920.61001          1172.96829          1534.79995          1821.63212           724.49055           432.35841          2363.71441           331.17731           429.56681          3026.88831           845.79090           647.88775           950.01550          2609.95007          1836.01582          1009.02955          1549.06556          2165.98597           878.43967           361.22116          2191.70024           436.19433          1067.50073           562.39200          2136.91820           476.41897          1779.03046           286.07785          1547.27240          2085.48879          1950.51195           301.40725           674.41557           468.85076           815.19402          2064.79813           392.82197           352.35815          3063.18587          1364.59299           469.94256           377.76622          2832.17163          2666.90746          1404.46846           412.14702           432.01155          2043.30263           737.60788           337.58297          2123.14450           890.27350          1827.34302          1010.92134           350.18891          2206.43700           396.93169          1748.52375          2000.39033           559.48953          1179.96524          2197.41039           961.96693          1487.09328           557.68398           631.35127           747.39157           970.60149          1678.27801           534.44885           943.39022          2057.38032          1252.88917           418.85300          1121.31862          2602.90359          1730.80396          2040.58498          1278.10878          1045.96635          1466.79875           422.66404           325.78525          2288.74959          1333.04560          3111.41694           733.80160           529.59848          2033.91476          2474.99100          3369.43006          1743.47842          1400.42176          2012.00967          1037.51206          1183.14432          2269.19624           834.04037          2956.54252           416.54757          1638.81439           958.08207          1333.41324          1545.27330           533.40654           608.64306          1323.80727          1611.58007           575.56071           453.21861          1414.32976          1911.24763           507.90259          2213.38420          1903.10558           921.71613           725.77013          2281.68068           324.41680          1549.78841           419.07504          2252.63975          1233.08431          1140.28144           521.90892          2372.49437           491.94261          2148.99885           573.30158          1428.07628          1755.05911          1922.71792          1687.68255           749.19460           778.58623           682.96805           291.27352           393.59191           941.87556           760.67835          3724.64952          2754.02338          1090.05702          2236.25697          1367.36387          1945.71551           725.25593           564.70184           915.23418           813.12876           628.42990           884.93863          2523.10890          1161.93011          2442.62972           557.40704          2691.13355           287.44276           479.98244          2611.61207          2011.67989          1173.41676           396.14455           327.75569           846.14794          1714.35723          1397.80744          1735.43239           989.63807          4049.45115          2193.33135           373.57928          2164.26529          1259.82899           606.48924           401.65800           347.24494           557.32858          1130.24036          2381.15367           472.29134          1184.69002           512.71972           892.96205          1268.94417          1063.55290           361.34901           651.76671           600.53812           423.24902           511.77001          1259.57553           329.31619          1046.56435          1958.93100          1349.74328          3082.73846          2363.51405          1585.76627          2418.14900          1375.96154          1332.56095          1307.76433          2643.03590           672.92000           902.32228           393.29307          2479.43590           299.91717          1801.10813           503.62580           474.05512          2067.35167           292.51357          1944.54024          1637.49656           643.34679          1961.33029           949.52279           662.92446           681.72764           704.88710          3007.51803           594.86000          2132.01268           500.06734           410.92434           443.22780          1556.40806           365.36184          2225.97615           845.13772          2227.63965           996.00877          2020.71181          2480.07278          2183.65452           451.18088          1555.01409          2134.41114           462.37044           730.41463           681.38737           475.20499          1346.80854           305.00413           910.95615           918.89174          2249.45485           445.35867          2395.61809           640.61464           495.63526           944.06068           334.63381          2303.92942           607.68262          1904.83211          2249.88448          1365.35968           531.42063           421.04836           611.38097          1015.07310           435.75813          2498.86266          2602.35331           415.68780          1806.06768          1262.39469          1472.24185          1944.66130           421.76014           641.02370           604.98416           299.96748          2241.63689           804.16462           358.47558           522.28770          1133.76605          2866.49656           453.56260          3438.52834           378.31435           905.13234           484.30410           517.68778          1145.39499           467.94245          1359.03612           985.16578          2956.18522          1709.83023          2120.35477           474.22736          1499.14415           340.02205           378.07356           559.28885           611.47738          3312.19300           531.72483          2136.05615           448.45557          2073.28847           464.89628           571.38220          1778.20699          1150.54723          1028.36680           463.81244          2148.23799           478.21239          2497.80112           734.35207           402.66926           442.33835          2055.91728           501.52471          1505.05582           315.67531           368.12547           845.61389          1483.00648           902.01611           486.52084          1302.25492           464.49319           384.64686          2279.06950          1680.93845          2737.03666           466.88338          1258.82047          1352.85606          1009.24638           303.92883          2724.44937           386.51453           474.76612           439.68287          2001.91830          1304.54475           464.74058          1766.03032          2398.11260           305.72553          1300.25917           588.23704          1304.39202           423.34501          1435.54712           647.62082           327.74466          1386.86664          1364.58160           462.40098           827.63778           526.75250          1316.44792          1698.27582          1010.87377           584.99542           575.66274          1285.10016          1420.53901          1253.30092           828.12424           492.43280           887.58897          2227.73738          1574.09574          1433.58446          2178.00665          1008.78097           626.72818          1126.49041          2478.69230           706.71306           839.93518           715.31591          1659.88851           978.69427           361.98277          2177.79450          1357.03421          1226.07521           292.53437          1579.07507           589.78288          1348.69703           494.03895          1270.46488           489.56552           458.84674          1873.74721          1012.15621          1411.22323          1431.64220           666.58459          1882.22895          1276.36597          3723.01545           588.73604          1122.59784          2000.58509          1087.72372          1059.16310          1249.67037          1153.44462          4374.77488           805.14299          3461.31025          1496.51566          1442.96737          1195.21809          1622.87064           813.05496          2167.52058           862.30914          1306.62409           454.36288          1843.21825          1271.89586           827.42198          1289.37186          2113.39301           799.54593           876.73838          1163.54427          1663.34671          1578.89521           848.48594          1764.86447           867.07402           300.34814          1862.99608          4067.58183          1047.60052           411.73792          1445.79686           733.49944          1070.29599          1868.39603           484.84890           538.39586          2066.98885          2784.71704          1227.45037           389.77557           716.52261           776.54098          1226.61407          1124.51182          1005.66770          1485.81034           758.16623          1434.53231           735.85109          1029.09511          2609.63453          1759.83545           689.99252           357.87250           609.76795          1224.38093           752.85874          1176.14557          3815.02197          1206.03545           345.54913           463.33865          1233.93769          1156.65390           873.13934           382.05169          3315.14949          1369.75785           352.55655          3454.93998          2253.02568           443.75627          1334.26877          1194.65390          1026.88901          1165.30347          1035.43852           506.87243          1530.70620          1403.79093          1422.10953          1267.13280           668.44432          1666.38950           480.10431          1200.21475           534.93092           454.84565           695.53157          1646.77139          1069.44433           870.89239           471.88244           374.33489          1636.44890          1106.69176          3924.15346          4488.34887          3244.12653          2096.22653          1972.13708          2117.10868          3330.88474          4837.32812           660.85835          4597.93705           463.99077          1074.04222          1544.29097           597.01647          3818.94097          5063.19867          1292.85882           412.92948          1991.41290          2746.39682           835.34123           864.47570          1442.65938          4585.60192          1263.14704          2388.57660           933.92646           546.37689          1544.99399          1569.47202           402.05081          3467.63119           543.39478          1389.26305          5159.80409          4048.76695          1724.99090          5281.08418           347.16572           851.53263           500.29721          1794.94495          2764.19294          1749.90417          2753.17976          1777.10631          2659.69644           770.97166          1614.21584          1319.45772          1787.27640          8544.58119          3413.62835           965.05844          5055.75374          3439.51188           819.41259           701.40766          4974.07298          2792.17038          4518.43077          4997.20284          1467.52038           824.61514           684.17733           478.86936           795.33299          4152.39777          1623.41335           993.99798          1611.20765           392.44181          1051.65370          1699.18685          3579.98931           951.96755           868.12547           728.58556           781.95855          1563.43388          1469.71502           785.41653          3047.11768          2951.25621          3394.93477          3108.90435          6029.45910          3875.13935          2544.27958           562.63213          4544.74975          1207.35305          1606.41777           694.97606          1411.19564           885.45800           419.55518          6111.84476          5225.73363          1510.88368          1572.14130          2839.23832          1995.42888          3083.32812          3063.42550           881.99114          1133.61730           592.59251           831.63760           390.86962           558.40349           722.27571           567.83663          1964.06432          3926.21817          3342.87330          1492.38762          2130.55366          1364.51380          1570.55944          8213.04760          5327.39334          1841.83911           406.94340           617.32426          5208.68947           740.69076          3884.35174          4490.02800          1031.11949          2313.64983           691.23738           941.39017          1048.19833          2287.69395          2340.07682          2574.11160           620.25893           491.14459          1138.49636           404.93465           600.44766           391.25703          3403.58943          5066.24280           419.36940          2957.70458           885.14734          2651.38194          1259.42016           686.08887           653.62784           719.37954           614.95167          1915.36694           767.60884          1279.51130           726.22346          2417.14784          1798.18117          3661.19385          2771.83121           589.18741           598.13077           390.28288          2951.32857           701.04851           737.56514          1302.78738          2583.29297           747.12973           876.32723           527.44937          1274.78549           959.14431          1502.75069          1371.79035           598.49335           797.03026           742.14442          2690.60599          1708.60949          1164.04140          7677.39547          1039.38916           791.84466           928.21924          1352.93524          2292.93501          1528.26732          1462.37349          1529.79840          2729.70514           664.72295          7083.57540          1206.26185          2762.57755           746.77051          1138.69693          3665.08208          2769.93909           755.43969          1104.49028          3154.34419           456.75239           549.49231          1262.89119          2939.37111          5224.99800          1485.93909          7316.46156          1196.29789          1639.19168          1525.83671          1219.64963           451.08763           878.13036          2776.57637           722.73597          3976.95241           609.46868          2952.66932           835.99811           652.31941          1340.18481          2034.41646          2910.79627          4840.59294          2730.78524          1534.57580          1699.57631          1409.72659          5667.56711          7528.50556          1918.80225           981.28558          2778.54614           599.77392          1119.45294           844.25986          2552.86946          1143.95035          1013.59137           607.20819           600.74779          3760.97165           932.64648           820.73329          6088.93864          3759.13391          2409.34727          1367.13088          7390.84129           790.13182          2174.18835          2674.06433          2106.02408          1021.96130          2980.16002          5206.47804          1724.85392           390.25967           764.54410           891.90335          1576.02159          1699.35106           635.47046           729.52827          5966.70397           814.53530          1093.91814          1962.79785          3822.23546          4834.03879           430.67475          1316.69679           835.05528          1074.71791          1704.60130           721.14151           847.27140          1482.01458           755.75741           574.57321           391.04708           808.48636          3004.95869           505.87409          3006.53362          1652.55812          2019.73360          1254.15257          1654.43886          1575.09540           404.39532          3579.52541          1437.92133          1879.36878          1800.17802          2033.97505          4984.14407           919.94526          5642.45669           618.76611           750.26491          1588.14883          1171.83938          7715.62545          2660.99242           832.46084          1669.26599          3918.18201          3197.22282           681.43904          4485.42027          1369.53584          2705.59583          1062.80878          3512.15623          3613.21451           534.09568          3505.29982          3738.78000          2445.66374          5328.32208           877.43679           818.28563          1163.01670          2289.18697           422.76946          7135.52988          3881.47578           695.67153          1564.60448          1655.92721          2016.09926           822.16418          1123.77174         12625.81079           715.65072          2184.81255          1317.40877           462.91592           784.53920          2501.62553          4580.53328          5801.25918          1454.52684          2913.82269          2639.90785          4806.37990           813.86641          1420.72271          1944.49240          1725.59951          5159.79178           605.12785          1153.26273          2671.69579           800.38536          3666.15726          2029.57098          7083.33379          2137.89662           952.83622          1156.84337           606.88531          5089.92964          7538.60599          1830.72511           332.75144           379.42561           792.05546           874.30877          6581.69547          1414.89229          2172.46932          3009.38627          2555.89301          5459.95739          5619.24445           373.00674           681.77904           758.25734          1211.60625           679.35231          4409.45929          3846.32814          1202.55562           675.59346          1006.69269          2203.47753          3544.88537          2161.33320          2006.46179           807.01856          4199.81180          6747.85642           445.36414           671.26270          1731.53738          7722.00993          1776.59669          3067.26625          5133.66945           705.13089          1723.08782          4549.60295           571.43967          1463.64909           997.27307          4916.81810           908.08603          1718.83086          2657.81633          5475.65782          4009.61252          6303.84546          4536.85376          4045.59807          1821.82204           856.44196          3602.91923          8256.03535           595.54694          2479.66090          2383.26659           319.81778          2331.18874          3227.39869          2464.06555           471.92537          4000.59069           838.77395          3164.68598          3785.93055          1864.65634           804.42480          2928.82005          3238.31189          5132.99042          6363.55650          5712.74002           693.33002           643.28713          1164.32390          4588.81492          1049.74640          2578.12788           854.29772           636.808