# vtk DataFile Version 3.0
Output from R2
ASCII
DATASET UNSTRUCTURED_GRID
POINTS       1414 double
     0.00000  2968.10000   0.
     1.54000  2966.60000   0.
     3.08000  2964.90000   0.
     4.61000  2964.10000   0.
     6.15000  2963.30000   0.
     7.69000  2962.60000   0.
     9.23000  2961.50000   0.
    10.76000  2960.70000   0.
    12.30000  2960.00000   0.
    13.84000  2959.30000   0.
    15.38000  2958.70000   0.
    16.91000  2958.10000   0.
    18.45000  2957.30000   0.
    19.99000  2956.60000   0.
    21.52000  2955.80000   0.
    23.06000  2955.00000   0.
    24.60000  2954.30000   0.
    26.14000  2953.50000   0.
    27.68000  2952.80000   0.
    29.21000  2951.90000   0.
    30.75000  2951.10000   0.
    32.29000  2950.20000   0.
    33.83000  2949.50000   0.
    35.36000  2948.70000   0.
    36.90000  2948.10000   0.
    38.44000  2947.30000   0.
    39.98000  2946.70000   0.
    41.51000  2946.10000   0.
    43.05000  2945.50000   0.
    44.59000  2945.10000   0.
    46.13000  2944.50000   0.
    47.66000  2944.10000   0.
    49.20000  2943.60000   0.
    50.74000  2943.40000   0.
    52.28000  2943.00000   0.
    53.81000  2942.50000   0.
    55.35000  2942.10000   0.
    56.89000  2941.60000   0.
    58.43000  2941.00000   0.
    59.96000  2940.60000   0.
    61.50000  2940.10000   0.
    63.04000  2939.50000   0.
    64.58000  2939.10000   0.
    66.11000  2939.20000   0.
    67.65000  2939.20000   0.
    69.19000  2939.10000   0.
    70.73000  2938.90000   0.
    72.26000  2938.60000   0.
    73.80000  2938.30000   0.
    75.34000  2938.50000   0.
    76.88000  2938.70000   0.
    78.41000  2938.60000   0.
    79.95000  2938.80000   0.
    81.49000  2938.90000   0.
    83.03000  2939.10000   0.
    84.56000  2939.10000   0.
     3.42000  2957.55000   0.
     8.97000  2954.51000   0.
    14.52000  2951.86000   0.
    20.07000  2949.38000   0.
    25.63000  2946.59000   0.
    31.18000  2943.67000   0.
    36.73000  2940.99000   0.
    42.28000  2938.62000   0.
    47.83000  2936.87000   0.
    53.39000  2935.46000   0.
    58.94000  2933.69000   0.
    64.49000  2931.95000   0.
    70.04000  2931.81000   0.
    75.60000  2931.36000   0.
    81.15000  2931.70000   0.
     0.51333  2967.60000   0.
     1.02667  2967.10000   0.
     2.05333  2966.03333   0.
     2.56667  2965.46667   0.
     3.59000  2964.63333   0.
     4.10000  2964.36667   0.
     5.12333  2963.83333   0.
     5.63667  2963.56667   0.
     6.66333  2963.06667   0.
     7.17667  2962.83333   0.
     8.20333  2962.23333   0.
     8.71667  2961.86667   0.
     9.74000  2961.23333   0.
    10.25000  2960.96667   0.
    11.27333  2960.46667   0.
    11.78667  2960.23333   0.
    12.81333  2959.76667   0.
    13.32667  2959.53333   0.
    14.35333  2959.10000   0.
    14.86667  2958.90000   0.
    15.89000  2958.50000   0.
    16.40000  2958.30000   0.
    17.42333  2957.83333   0.
    17.93667  2957.56667   0.
    18.96333  2957.06667   0.
    19.47667  2956.83333   0.
    20.50000  2956.33333   0.
    21.01000  2956.06667   0.
    22.03333  2955.53333   0.
    22.54667  2955.26667   0.
    23.57333  2954.76667   0.
    24.08667  2954.53333   0.
    25.11333  2954.03333   0.
    25.62667  2953.76667   0.
    26.65333  2953.26667   0.
    27.16667  2953.03333   0.
    28.19000  2952.50000   0.
    28.70000  2952.20000   0.
    29.72333  2951.63333   0.
    30.23667  2951.36667   0.
    31.26333  2950.80000   0.
    31.77667  2950.50000   0.
    32.80333  2949.96667   0.
    33.31667  2949.73333   0.
    34.34000  2949.23333   0.
    34.85000  2948.96667   0.
    35.87333  2948.50000   0.
    36.38667  2948.30000   0.
    37.41333  2947.83333   0.
    37.92667  2947.56667   0.
    38.95333  2947.10000   0.
    39.46667  2946.90000   0.
    40.49000  2946.50000   0.
    41.00000  2946.30000   0.
    42.02333  2945.90000   0.
    42.53667  2945.70000   0.
    43.56333  2945.36667   0.
    44.07667  2945.23333   0.
    45.10333  2944.90000   0.
    45.61667  2944.70000   0.
    46.64000  2944.36667   0.
    47.15000  2944.23333   0.
    48.17333  2943.93333   0.
    48.68667  2943.76667   0.
    49.71333  2943.53333   0.
    50.22667  2943.46667   0.
    51.25333  2943.26667   0.
    51.76667  2943.13333   0.
    52.79000  2942.83333   0.
    53.30000  2942.66667   0.
    54.32333  2942.36667   0.
    54.83667  2942.23333   0.
    55.86333  2941.93333   0.
    56.37667  2941.76667   0.
    57.40333  2941.40000   0.
    57.91667  2941.20000   0.
    58.94000  2940.86667   0.
    59.45000  2940.73333   0.
    60.47333  2940.43333   0.
    60.98667  2940.26667   0.
    62.01333  2939.90000   0.
    62.52667  2939.70000   0.
    63.55333  2939.36667   0.
    64.06667  2939.23333   0.
    65.34500  2939.15000   0.
    66.88000  2939.20000   0.
    68.42000  2939.15000   0.
    69.70333  2939.03333   0.
    70.21667  2938.96667   0.
    71.24000  2938.80000   0.
    71.75000  2938.70000   0.
    72.77333  2938.50000   0.
    73.28667  2938.40000   0.
    74.31333  2938.36667   0.
    74.82667  2938.43333   0.
    75.85333  2938.56667   0.
    76.36667  2938.63333   0.
    77.64500  2938.65000   0.
    78.92333  2938.66667   0.
    79.43667  2938.73333   0.
    80.72000  2938.85000   0.
    82.00333  2938.96667   0.
    82.51667  2939.03333   0.
    83.79500  2939.10000   0.
     0.08400  2959.57200   0.
     1.19600  2958.89800   0.
     2.30800  2958.22400   0.
     4.53000  2956.94200   0.
     5.64000  2956.33400   0.
     6.75000  2955.72600   0.
     7.86000  2955.11800   0.
    10.35750  2953.84750   0.
    11.74500  2953.18500   0.
    13.13250  2952.52250   0.
    15.90750  2951.24000   0.
    17.29500  2950.62000   0.
    18.68250  2950.00000   0.
    21.18200  2948.82200   0.
    22.29400  2948.26400   0.
    23.40600  2947.70600   0.
    24.51800  2947.14800   0.
    26.74000  2946.00600   0.
    27.85000  2945.42200   0.
    28.96000  2944.83800   0.
    30.07000  2944.25400   0.
    32.56750  2943.00000   0.
    33.95500  2942.33000   0.
    35.34250  2941.66000   0.
    38.11750  2940.39750   0.
    39.50500  2939.80500   0.
    40.89250  2939.21250   0.
    43.66750  2938.18250   0.
    45.05500  2937.74500   0.
    46.44250  2937.30750   0.
    49.22000  2936.51750   0.
    50.61000  2936.16500   0.
    52.00000  2935.81250   0.
    54.77750  2935.01750   0.
    56.16500  2934.57500   0.
    57.55250  2934.13250   0.
    60.32750  2933.25500   0.
    61.71500  2932.82000   0.
    63.10250  2932.38500   0.
    65.87750  2931.91500   0.
    67.26500  2931.88000   0.
    68.65250  2931.84500   0.
    71.43000  2931.69750   0.
    72.82000  2931.58500   0.
    74.21000  2931.47250   0.
    76.98750  2931.44500   0.
    78.37500  2931.53000   0.
    79.76250  2931.61500   0.
    82.53750  2931.75500   0.
    83.92500  2931.81000   0.
     6.60134  2937.05984   0.
    20.80435  2932.52560   0.
     3.78758  2946.36592   0.
    15.48523  2940.98228   0.
    29.30091  2934.50364   0.
    23.90594  2939.46561   0.
    40.87322  2931.62711   0.
     1.03219  2951.87344   0.
    10.83406  2946.32292   0.
    20.42668  2943.42459   0.
    48.80952  2930.83467   0.
    35.50309  2935.49258   0.
     7.54365  2949.73854   0.
    28.57967  2939.84283   0.
    15.90963  2945.83181   0.
    44.30452  2933.27820   0.
    -0.12722  2955.42655   0.
    24.47411  2943.04615   0.
     4.45051  2952.86019   0.
    40.01017  2935.22543   0.
    52.75593  2931.58993   0.
    13.75183  2934.27842   0.
    32.31862  2938.44653   0.
     0.40990  2931.04902   0.
    19.20708  2946.27332   0.
    57.19103  2930.55709   0.
    -0.97178  2947.27328   0.
    19.39705  2939.49643   0.
    11.08068  2950.12444   0.
    32.86215  2930.47012   0.
     7.41320  2941.82707   0.
    13.76382  2948.77946   0.
    27.17579  2942.79365   0.
     7.27112  2952.68663   0.
     2.71547  2954.94653   0.
    22.91159  2945.17994   0.
     2.00816  2941.86911   0.
    24.73355  2934.79062   0.
    47.86753  2934.00196   0.
    50.62083  2933.29089   0.
    60.15732  2930.28185   0.
    37.65425  2937.53830   0.
    44.64836  2929.77041   0.
    10.93416  2939.02064   0.
     4.26476  2949.76242   0.
    36.78915  2931.78219   0.
     7.36345  2946.13476   0.
    30.92470  2941.06806   0.
     6.19921  2931.10091   0.
    35.16618  2938.51604   0.
    16.36294  2929.87801   0.
    13.43632  2943.77014   0.
    42.64967  2935.50406   0.
    26.89596  2931.23775   0.
     1.59760  2936.73753   0.
    17.19200  2948.13905   0.
    -0.61497  2957.60981   0.
    26.49360  2937.36117   0.
     9.56799  2951.50953   0.
    17.55858  2943.77119   0.
    55.26825  2932.33039   0.
    22.03247  2936.46128   0.
    16.10828  2937.24515   0.
    22.48452  2941.40733   0.
    20.86327  2946.43955   0.
    29.71126  2937.35408   0.
    32.14062  2935.59882   0.
    45.26358  2935.44707   0.
    29.19256  2942.39482   0.
    25.22337  2944.48902   0.
    25.77440  2940.40763   0.
     5.12787  2951.33100   0.
     9.72036  2943.07255   0.
     0.63027  2944.64860   0.
     5.15669  2954.13690   0.
    33.80274  2940.56791   0.
     1.57076  2956.41210   0.
     9.31000  2947.97928   0.
     9.87726  2933.53233   0.
    53.60824  2932.85261   0.
    40.63972  2936.89193   0.
    13.47285  2946.23828   0.
    37.68088  2934.75035   0.
    46.32767  2931.88185   0.
    18.64740  2941.16071   0.
    13.09413  2950.32980   0.
    18.01744  2935.92389   0.
     0.55332  2948.73049   0.
     5.35766  2947.55011   0.
    42.44669  2933.52960   0.
    57.75733  2932.24094   0.
    23.68300  2931.83870   0.
    19.94397  2947.74183   0.
    61.81887  2931.15328   0.
[...]
POINT_DATA      1414
CELL_DATA      2568
SCALARS Resistivity(ohm.m) double 1
LOOKUP_TABLE default
          1193.24094          1714.61097          2086.48566          1156.76221           524.49706          2105.80551          1312.29570          1463.79535          1600.86883          1909.39696           742.81077          1865.48111           564.51345          2530.71211          2481.44194          1758.65023          1552.64967           416.65820           514.04873          2341.96324          1231.36792          1782.84781          1284.55915           625.45115          1865.60303           482.40054           264.05600          2109.54235          2324.01275          2046.39083           534.27757           487.54545          1637.78721           405.24531           353.10067          1616.53029           749.00748           981.14365          1245.24950          1535.97868          1796.61464           661.25083           476.77282          2525.79350           331.74502           417.07866          3331.80177           796.60063           591.88962           935.80816          2824.35571          1865.82755           996.89057          1547.99486          2031.03806           950.13593           355.17881          2035.86072           446.10387          1080.40183           523.94483          2256.19627           408.44132          1736.73870           267.84588          1503.72844          2095.81099          1894.06029           285.15771           770.29206           466.98772           788.34878          2142.91014           397.05070           301.42528          3294.75444          1426.43769           419.70957           321.78131          3138.68524          2934.64523          1408.82409           423.61214           431.06516          2129.12438           842.88026           330.67904          2165.44595           865.23839          1809.06690          1087.00557           360.77105          2071.34832           338.81188          1701.24247          2068.94174           514.03731          1220.64088          2338.41271          1040.80267          1528.32112           548.55589           644.90650           681.62512          1038.21625          1659.16975           532.98289           921.92664          1939.55351          1299.58557           356.86584          1114.52259          2799.51366          1730.05384          2087.42545          1274.77967          1027.19820          1488.18368           468.08283           311.66705          2231.85503          1397.29351          3393.14839           716.91572           485.85317          2064.46031          2635.96170          3609.19066          1724.89794          1411.40567          1981.38570          1148.84376          1233.62460          2432.31486           799.79217          3152.80939           353.93870          1635.22562          1055.61904          1319.21775          1573.76529           537.15386           637.39002          1336.92770          1628.87707           576.00032           492.00994          1462.17263          1952.24670           531.73386          2038.19086          1944.30264           915.97416           684.04852          2352.85273           279.54913          1546.52016           399.86202          2373.15220          1272.34939          1161.36143           545.76899          2448.05864           520.49656          2013.79967           516.90622          1441.82639          1701.92906          1913.80808          1704.70760           691.78946           743.52015           705.15516           269.08456           413.15169           896.16894           857.44705          3878.73125          2934.34873          1141.22968          2240.35129          1378.66086          1943.44140           736.89504           532.52048          1017.24122           916.13532           679.18818           831.19792          2776.88504          1225.80975          2677.33695           632.66427          2985.40720           269.88521           540.73710          2885.64646          1950.93228          1260.06196           430.36115           280.53108           804.93796          1710.65783          1418.48828          1689.95206          1095.76289          4154.67078          2033.16539           398.55820          1998.65577          1314.77612           599.10299           434.58035           327.78445           587.92019          1224.17698          2577.62396           466.36937          1266.08506           559.17396           856.21729          1325.68808          1127.78722           332.02753           604.43232           684.55265           363.11432           579.47033          1251.46074           323.44575          1016.02460          1853.48642          1408.12438          3243.02209          2460.59601          1586.87897          2572.54001          1397.46424          1386.61779          1368.55331          2922.08007           609.78206          1015.48942           410.29163          2718.33953           262.92513          1801.74345           531.15200           407.43514          1958.04083           259.11745          1843.33983          1639.32406           719.93202          1980.05161           968.71226           619.32502           753.13739           665.41260          3132.43062           528.92619          1991.54278           449.66938           444.31438           466.65651          1573.48691           350.69604          2086.09522           957.59629          2069.18820           957.42142          1896.91180          2594.31152          2174.87567           444.65002          1586.28951          1975.79525           432.51138           703.15521           633.19334           431.56218          1354.59142           272.00605           939.06335           872.79182          2097.19668           497.32802          2456.68784           579.89610           437.34826           903.93047           294.65197          2459.70996           692.62932          1930.81200          2203.05589          1422.87449           562.05421           449.75724           678.91358          1003.12509           471.41721          2658.29248          2840.83676           401.57552          1815.28279          1304.59075          1503.13134          1965.33157           361.83463           728.70912           539.94865           289.55605          2129.96984           744.82563           320.78935           532.92475          1117.36526          2981.19322           454.22553          3615.01567           378.49785           986.46609           424.50851           576.42531          1227.74907           500.36628          1352.61511          1101.18585          3227.26363          1724.26865          2057.32571           528.10398          1529.90252           339.14120           393.25366           627.84599           576.82906          3524.05235           562.26881          2224.64557           383.14921          2044.41876           442.46492           592.20094          1794.33723          1205.11062          1081.25492           485.49033          2173.42107           416.22424          2730.99202           814.18944           350.56898           491.64343          2118.00103           533.77781          1541.98486           312.83287           389.56193           792.31754          1471.58331           861.47525           536.80603          1334.42337           501.01075           341.17144          2182.07199          1678.20136          2871.93539           420.74215          1283.21950          1395.47647           978.02233           293.35238          2992.79868           392.33387           455.10915           413.43294          2065.31938          1357.59137           395.40065          1753.95364          2585.44557           266.49631          1321.69090           545.05129          1328.97763           462.98468          1469.82822           739.41103           331.21418          1394.31388          1391.65725           401.26948           766.68238           587.74053          1319.92959          1708.03937           986.03305           522.82799           651.82641          1355.63965          1382.06444          1329.22728           886.84484           504.43060           979.94003          2140.19329          1603.32727          1483.82198          2304.95767           975.33236           650.30739          1130.00704          2580.46097           669.55363           927.71948           653.58782          1667.30532           942.92196           379.06276          2252.01262          1400.53546          1300.87082           279.39259          1563.67259           531.18868          1380.58069           461.13666          1343.93764           443.97397           395.16625          1796.62164          1049.89458          1452.05955          1484.00997           605.60734          1905.78584          1280.90221          3885.13148           610.92798          1217.17869          1907.31062          1188.54678          1093.72212          1261.18656          1240.65444          4428.23509           878.95488          3670.51933          1538.68172          1448.48353          1191.00836          1602.46266           819.41972          2281.85623           961.66033          1345.65151           412.98513          1860.86900          1340.53665           920.07591          1294.49829          2014.10857           831.20259           821.55256          1155.43800          1632.72738          1604.56342           829.76544          1785.28247           873.85147           287.60161          1868.49136          4152.06840          1024.02134           414.53459          1470.46154           685.70525          1071.30329          1788.26822           543.14415           509.23062          1976.13745          3080.21710          1230.03926           335.36029           697.50987           760.51690          1299.96530          1115.62643          1122.35985          1458.43137           824.78670          1408.26945           781.99872          1088.48924          2714.51849          1783.12288           631.38354           309.34557           546.22651          1292.10585           782.08841          1243.87225          3901.09402          1288.46748           357.43424           515.64755          1245.43545          1236.19355           860.40196           406.24953          3468.17141          1337.35248           367.50473          3564.77685          2354.92409           406.01981          1399.46902          1276.07118          1126.76323          1172.64395          1121.51707           570.80856          1546.34074          1391.02717          1416.68147          1267.54962           723.92131          1654.06099           416.71975          1193.32471           602.22699           409.62269           736.82776          1664.24655          1149.07342           980.27105           416.36867           392.00059          1658.03158          1193.16942          3478.51156          4052.31788          2817.27034          1934.42872          1943.83617          2119.00060          3210.54088          4907.02790           658.21224          4489.12132           437.10277          1082.52788          1507.92643           681.42848          3352.68115          5525.21896          1269.74465           440.98804          2160.20495          2945.86996           783.57902           852.19457          1445.36337          4365.95850          1361.54862          2151.40950           898.93933           644.86381          1376.47756          1584.12572           461.90522          3595.89814           547.30867          1446.54816          5253.20994          3687.20708          1659.70036          4637.22865           298.83585           919.08415           507.12360          1850.27537          2994.29224          1866.75120          3176.05044          1917.76792          2717.21964           737.12341          1672.32449          1370.96225          1763.32575          9302.89881          2955.04445          1056.06153          4869.13170          4173.08856           770.27745           693.10012          5303.35523          2650.58458          4133.55968          4320.92094          1512.53489           933.93381           657.35166           530.42477           878.75809          4122.23960          1732.34693          1032.91728          1602.48354           332.52466          1002.30984          1786.32051          3183.67921          1018.12259           875.53751           754.88165           839.16564          1570.48958          1556.51164           836.20175          2731.94607          3008.41724          3611.80651          3224.20049          5643.72431          4477.81943          2405.39389           627.49727          4291.78131          1247.05000          1695.85144           665.44748          1410.65220           935.45486           388.74512          5578.40615          5489.32799          1538.87691          1682.29081          3069.11736          2035.78442          3112.01432          2705.81018           968.93596          1268.24110           557.75465           908.47769           448.71128           570.85104           765.10668           601.75077          2123.68743          4614.72546          3313.23134          1569.29631          2188.18385          1464.71180          1614.97955          8128.03017          5322.91060          1888.63036           462.78072           585.40609          5544.00121           692.56323          3922.14017          4379.76476           995.33067          2247.72505           686.20360           944.05292           996.79357          2354.42969          2402.58606          2645.83752           630.85324           579.09525           998.11488           378.47715           590.14810           446.28735          3040.68736          5259.57842           465.45956          2840.98798           886.04402          2610.27569          1045.52001           727.50459           610.56100           732.94559           665.94414          2004.00513           735.17278          1385.61869           685.40357          2284.98134          1764.85496          4105.43362          2660.07064           661.77621           532.30832           343.24959          3174.65233           684.32895           752.31866          1325.07533          2520.23861           834.29129           835.09772           529.08047          1293.66282          1053.87503          1702.06632          1442.66565           609.40492           690.87453           672.29380          2799.35189          1586.43724          1123.84244          7790.85733          1003.43157           943.56704           992.24492          1583.23726          2576.13545          1537.06554          1494.12431          1889.18366          2566.67587           588.00561          7326.93134          1342.66312          2955.42017           849.60762          1009.30647          4077.81136          2665.11713           712.85289          1139.23525          2752.83662           480.23841           493.66447          1248.10670          2845.51439          5280.35632          1405.08329          7240.56735          1418.48030          1747.70405          1553.53925          1018.94789           441.43439           875.01680          3000.46077           732.86510          3978.25581           634.89995          3298.36721           813.92467           726.80350          1350.20258          1842.39318          3110.07579          4981.23601          2620.08822          1287.29182          1725.22874          1302.69717          5624.87195          7470.55408          1883.25329           975.40344          2769.72125           625.27883           993.61755           820.22272          2625.80496           987.17155           965.56409           594.77974           614.01082          3562.72303          1131.61909           792.48546          6044.41530          3390.61517          2111.38310          1435.05738          8208.71201           775.40878          2306.19758          2931.02777          2156.37185          1247.03382          2846.34396          5167.80228          1761.77322           403.66497           692.38788           967.85426          1846.86446          1750.81931           710.41823           696.21379          6264.38415           854.40767          1238.34845          1903.48405          3320.29418          4983.52328           498.12369          1424.13674           916.23903          1182.91643          1938.40988           803.45323           889.53541          1459.27336           769.93517           625.17409           458.38030           796.39940          3258.83110           496.88510          3297.90506          1742.69183          2007.02222          1340.74664          1646.39414          1575.41150           473.16794          4071.14716          1462.71214          1892.45573          1875.22057          2148.00183          5144.10660           909.47185          5397.44575           528.71293           706.32652          1647.54976           989.75926          7637.79384          2850.82933           905.58205          1544.79607          3679.55784          2745.42974           675.54834          4374.59042          1471.33731          2671.03629           989.59697          3508.05576          3710.83927           556.27598          3701.42634          3815.52404          2463.45614          5771.71787           840.73668           771.91664           992.46402          2170.99031           450.14452          7633.62691          4090.83681           674.36381          1534.45365          1896.93502          2075.80225           784.61899           998.08166         14290.50818           715.25683          2161.04667          1347.89380           501.94422           743.54318          2386.40657          4693.29256          5869.31180          1718.57418          2602.65336          2733.52012          4831.59011           701.20926          1463.97994          2101.50886          1807.78007          5320.50323           576.26920           987.39724          2779.46861           882.65859          3723.71445          2146.90299          6929.21408          2735.14385          1127.88488          1104.36477           632.48722          5483.97944          7427.94553          2040.24012           263.41057           403.81108           775.47072           839.12195          6529.29153          1203.25010          2052.26288          2943.83018          2401.42343          5474.71756          6028.93150           365.09262           582.76727           841.94348          1245.32877           658.20758          4581.22395          3735.47380          1365.80055           760.86606          1016.18157          2128.47488          3418.75837          2141.34802          2029.98207           970.59387          3986.48837          7209.18095           462.21064           688.91347          1733.59854          7802.77210          1979.51016          2714.77497          5143.94880           761.22928          1852.42517          4302.75105           506.34444          1499.63745          1041.34309          5086.54398           942.35740          1683.75723          2575.27575          5235.82172          5037.48972          6186.15332          4615.53595          3820.97315          1643.32867           908.20963          3466.79606          8943.64120           656.46533          2451.38378          2477.03418           294.15901          2318.01197          3518.17401          2597.11884           414.64047          4386.56319           820.97341          2709.17719          3788.19120          1840.87993           797.52399          2994.14442          3367.24249          4630.65966          6335.18879          5574.46534           690.67723           642.30747          1325.89014          4874.92996          1012.26499          2516.04088           899.03571           587.157