# vtk DataFile Version 3.0
Output from R2
ASCII
DATASET UNSTRUCTURED_GRID
POINTS       1414 double
     0.00000  2968.10000   0.
     1.54000  2966.60000   0.
     3.08000  2964.90000   0.
     4.61000  2964.10000   0.
     6.15000  2963.30000   0.
     7.69000  2962.60000   0.
     9.23000  2961.50000   0.
    10.76000  2960.70000   0.
    12.30000  2960.00000   0.
    13.84000  2959.30000   0.
    15.38000  2958.70000   0.
    16.91000  2958.10000   0.
    18.45000  2957.30000   0.
    19.99000  2956.60000   0.
    21.52000  2955.80000   0.
    23.06000  2955.00000   0.
    24.60000  2954.30000   0.
    26.14000  2953.50000   0.
    27.68000  2952.80000   0.
    29.21000  2951.90000   0.
    30.75000  2951.10000   0.
    32.29000  2950.20000   0.
    33.83000  2949.50000   0.
    35.36000  2948.70000   0.
    36.90000  2948.10000   0.
    38.44000  2947.30000   0.
    39.98000  2946.70000   0.
    41.51000  2946.10000   0.
    43.05000  2945.50000   0.
    44.59000  2945.10000   0.
    46.13000  2944.50000   0.
    47.66000  2944.10000   0.
    49.20000  2943.60000   0.
    50.74000  2943.40000   0.
    52.28000  2943.00000   0.
    53.81000  2942.50000   0.
    55.35000  2942.10000   0.
    56.89000  2941.60000   0.
    58.43000  2941.00000   0.
    59.96000  2940.60000   0.
    61.50000  2940.10000   0.
    63.04000  2939.50000   0.
    64.58000  2939.10000   0.
    66.11000  2939.20000   0.
    67.65000  2939.20000   0.
    69.19000  2939.10000   0.
    70.73000  2938.90000   0.
    72.26000  2938.60000   0.
    73.80000  2938.30000   0.
    75.34000  2938.50000   0.
    76.88000  2938.70000   0.
    78.41000  2938.60000   0.
    79.95000  2938.80000   0.
    81.49000  2938.90000   0.
    83.03000  2939.10000   0.
    84.56000  2939.10000   0.
     3.42000  2957.55000   0.
     8.97000  2954.51000   0.
    14.52000  2951.86000   0.
    20.07000  2949.38000   0.
    25.63000  2946.59000   0.
    31.18000  2943.67000   0.
    36.73000  2940.99000   0.
    42.28000  2938.62000   0.
    47.83000  2936.87000   0.
    53.39000  2935.46000   0.
    58.94000  2933.69000   0.
    64.49000  2931.95000   0.
    70.04000  2931.81000   0.
    75.60000  2931.36000   0.
    81.15000  2931.70000   0.
     0.51333  2967.60000   0.
     1.02667  2967.10000   0.
     2.05333  2966.03333   0.
     2.56667  2965.46667   0.
     3.59000  2964.63333   0.
     4.10000  2964.36667   0.
     5.12333  2963.83333   0.
     5.63667  2963.56667   0.
     6.66333  2963.06667   0.
     7.17667  2962.83333   0.
     8.20333  2962.23333   0.
     8.71667  2961.86667   0.
     9.74000  2961.23333   0.
    10.25000  2960.96667   0.
    11.27333  2960.46667   0.
    11.78667  2960.23333   0.
    12.81333  2959.76667   0.
    13.32667  2959.53333   0.
    14.35333  2959.10000   0.
    14.86667  2958.90000   0.
    15.89000  2958.50000   0.
    16.40000  2958.30000   0.
    17.42333  2957.83333   0.
    17.93667  2957.56667   0.
    18.96333  2957.06667   0.
    19.47667  2956.83333   0.
    20.50000  2956.33333   0.
    21.01000  2956.06667   0.
    22.03333  2955.53333   0.
    22.54667  2955.26667   0.
    23.57333  2954.76667   0.
    24.08667  2954.53333   0.
    25.11333  2954.03333   0.
    25.62667  2953.76667   0.
    26.65333  2953.26667   0.
    27.16667  2953.03333   0.
    28.19000  2952.50000   0.
    28.70000  2952.20000   0.
    29.72333  2951.63333   0.
    30.23667  2951.36667   0.
    31.26333  2950.80000   0.
    31.77667  2950.50000   0.
    32.80333  2949.96667   0.
    33.31667  2949.73333   0.
    34.34000  2949.23333   0.
    34.85000  2948.96667   0.
    35.87333  2948.50000   0.
    36.38667  2948.30000   0.
    37.41333  2947.83333   0.
    37.92667  2947.56667   0.
    38.95333  2947.10000   0.
    39.46667  2946.90000   0.
    40.49000  2946.50000   0.
    41.00000  2946.30000   0.
    42.02333  2945.90000   0.
    42.53667  2945.70000   0.
    43.56333  2945.36667   0.
    44.07667  2945.23333   0.
    45.10333  2944.90000   0.
    45.61667  2944.70000   0.
    46.64000  2944.36667   0.
    47.15000  2944.23333   0.
    48.17333  2943.93333   0.
    48.68667  2943.76667   0.
    49.71333  2943.53333   0.
    50.22667  2943.46667   0.
    51.25333  2943.26667   0.
    51.76667  2943.13333   0.
    52.79000  2942.83333   0.
    53.30000  2942.66667   0.
    54.32333  2942.36667   0.
    54.83667  2942.23333   0.
    55.86333  2941.93333   0.
    56.37667  2941.76667   0.
    57.40333  2941.40000   0.
    57.91667  2941.20000   0.
    58.94000  2940.86667   0.
    59.45000  2940.73333   0.
    60.47333  2940.43333   0.
    60.98667  2940.26667   0.
    62.01333  2939.90000   0.
    62.52667  2939.70000   0.
    63.55333  2939.36667   0.
    64.06667  2939.23333   0.
    65.34500  2939.15000   0.
    66.88000  2939.20000   0.
    68.42000  2939.15000   0.
    69.70333  2939.03333   0.
    70.21667  2938.96667   0.
    71.24000  2938.80000   0.
    71.75000  2938.70000   0.
    72.77333  2938.50000   0.
    73.28667  2938.40000   0.
    74.31333  2938.36667   0.
    74.82667  2938.43333   0.
    75.85333  2938.56667   0.
    76.36667  2938.63333   0.
    77.64500  2938.65000   0.
    78.92333  2938.66667   0.
    79.43667  2938.73333   0.
    80.72000  2938.85000   0.
    82.00333  2938.96667   0.
    82.51667  2939.03333   0.
    83.79500  2939.10000   0.
     0.08400  2959.57200   0.
     1.19600  2958.89800   0.
     2.30800  2958.22400   0.
     4.53000  2956.94200   0.
     5.64000  2956.33400   0.
     6.75000  2955.72600   0.
     7.86000  2955.11800   0.
    10.35750  2953.84750   0.
    11.74500  2953.18500   0.
    13.13250  2952.52250   0.
    15.90750  2951.24000   0.
    17.29500  2950.62000   0.
    18.68250  2950.00000   0.
    21.18200  2948.82200   0.
    22.29400  2948.26400   0.
    23.40600  2947.70600   0.
    24.51800  2947.14800   0.
    26.74000  2946.00600   0.
    27.85000  2945.42200   0.
    28.96000  2944.83800   0.
    30.07000  2944.25400   0.
    32.56750  2943.00000   0.
    33.95500  2942.33000   0.
    35.34250  2941.66000   0.
    38.11750  2940.39750   0.
    39.50500  2939.80500   0.
    40.89250  2939.21250   0.
    43.66750  2938.18250   0.
    45.05500  2937.74500   0.
    46.44250  2937.30750   0.
    49.22000  2936.51750   0.
    50.61000  2936.16500   0.
    52.00000  2935.81250   0.
    54.77750  2935.01750   0.
    56.16500  2934.57500   0.
    57.55250  2934.13250   0.
    60.32750  2933.25500   0.
    61.71500  2932.82000   0.
    63.10250  2932.38500   0.
    65.87750  2931.91500   0.
    67.26500  2931.88000   0.
    68.65250  2931.84500   0.
    71.43000  2931.69750   0.
    72.82000  2931.58500   0.
    74.21000  2931.47250   0.
    76.98750  2931.44500   0.
    78.37500  2931.53000   0.
    79.76250  2931.61500   0.
    82.53750  2931.75500   0.
    83.92500  2931.81000   0.
     6.60134  2937.05984   0.
    20.80435  2932.52560   0.
     3.78758  2946.36592   0.
    15.48523  2940.98228   0.
    29.30091  2934.50364   0.
    23.90594  2939.46561   0.
    40.87322  2931.62711   0.
     1.03219  2951.87344   0.
    10.83406  2946.32292   0.
    20.42668  2943.42459   0.
    48.80952  2930.83467   0.
    35.50309  2935.49258   0.
     7.54365  2949.73854   0.
    28.57967  2939.84283   0.
    15.90963  2945.83181   0.
    44.30452  2933.27820   0.
    -0.12722  2955.42655   0.
    24.47411  2943.04615   0.
     4.45051  2952.86019   0.
    40.01017  2935.22543   0.
    52.75593  2931.58993   0.
    13.75183  2934.27842   0.
    32.31862  2938.44653   0.
     0.40990  2931.04902   0.
    19.20708  2946.27332   0.
    57.19103  2930.55709   0.
    -0.97178  2947.27328   0.
    19.39705  2939.49643   0.
    11.08068  2950.12444   0.
    32.86215  2930.47012   0.
     7.41320  2941.82707   0.
    13.76382  2948.77946   0.
    27.17579  2942.79365   0.
     7.27112  2952.68663   0.
     2.71547  2954.94653   0.
    22.91159  2945.17994   0.
     2.00816  2941.86911   0.
    24.73355  2934.79062   0.
    47.86753  2934.00196   0.
    50.62083  2933.29089   0.
    60.15732  2930.28185   0.
    37.65425  2937.53830   0.
    44.64836  2929.77041   0.
    10.93416  2939.02064   0.
     4.26476  2949.76242   0.
    36.78915  2931.78219   0.
     7.36345  2946.13476   0.
    30.92470  2941.06806   0.
     6.19921  2931.10091   0.
    35.16618  2938.51604   0.
    16.36294  2929.87801   0.
    13.43632  2943.77014   0.
    42.64967  2935.50406   0.
    26.89596  2931.23775   0.
     1.59760  2936.73753   0.
    17.19200  2948.13905   0.
    -0.61497  2957.60981   0.
    26.49360  2937.36117   0.
     9.56799  2951.50953   0.
    17.55858  2943.77119   0.
    55.26825  2932.33039   0.
    22.03247  2936.46128   0.
    16.10828  2937.24515   0.
    22.48452  2941.40733   0.
    20.86327  2946.43955   0.
    29.71126  2937.35408   0.
    32.14062  2935.59882   0.
    45.26358  2935.44707   0.
    29.19256  2942.39482   0.
    25.22337  2944.48902   0.
    25.77440  2940.40763   0.
     5.12787  2951.33100   0.
     9.72036  2943.07255   0.
     0.63027  2944.64860   0.
     5.15669  2954.13690   0.
    33.80274  2940.56791   0.
     1.57076  2956.41210   0.
     9.31000  2947.97928   0.
     9.87726  2933.53233   0.
    53.60824  2932.85261   0.
    40.63972  2936.89193   0.
    13.47285  2946.23828   0.
    37.68088  2934.75035   0.
    46.32767  2931.88185   0.
    18.64740  2941.16071   0.
    13.09413  2950.32980   0.
    18.01744  2935.92389   0.
     0.55332  2948.73049   0.
     5.35766  2947.55011   0.
    42.44669  2933.52960   0.
    57.75733  2932.24094   0.
    23.68300  2931.83870   0.
    19.94397  2947.74183   0.
    61.81887  2931.15328   0.
[...]
POINT_DATA      1414
CELL_DATA      2568
SCALARS Resistivity(ohm.m) double 1
LOOKUP_TABLE default
          1163.05021          1674.36838          2128.51329          1119.37149           496.74006          1979.68331          1304.98405          1478.64300          1650.24864          1881.29881           791.46527          1877.70978           558.64714          2344.53732          2332.01531          1807.93714          1550.73100           473.26381           469.98528          2181.44637          1236.85627          1790.06023          1263.46112           639.52868          1813.63556           489.07000           277.50421          1964.07646          2295.59914          2074.91266           484.69867           486.35914          1612.04912           375.41884           430.34505          1645.96658           779.25346           964.61969          1220.34216          1523.68981          1836.11917           691.44815           486.44957          2430.11668           369.16752           391.59872          3131.54773           844.33034           590.07208          1002.31371          2584.10678          1833.68296          1047.20295          1560.99017          2238.73297           921.72003           412.16178          2000.70844           425.74451          1117.08723           502.02793          2125.80083           478.30486          1758.00838           284.68183          1553.97275          1947.98720          1840.56499           325.01655           736.80819           452.35224           841.36942          2089.68097           452.55758           356.33153          3164.15709          1408.39646           462.12552           347.93304          2911.77018          2690.03384          1432.25969           410.85090           392.26265          2027.81108           802.41734           379.79585          2161.87305           933.34873          1758.15187          1069.43512           393.12988          1991.80870           399.74105          1771.31158          2006.62184           552.48595          1240.45354          2217.17982          1016.66702          1505.74528           511.84903           610.54784           716.70240           953.16200          1688.93675           491.12114           968.67539          2119.94562          1312.99586           440.34144          1165.02631          2693.07706          1694.58894          2070.11316          1294.02905          1093.12560          1484.35572           464.24945           362.08367          2081.43339          1377.77354          3220.52219           714.71593           527.58714          1932.15126          2554.14698          3467.47968          1715.98988          1410.43998          1880.07550          1104.79475          1219.80691          2239.25825           831.31602          3052.90309           427.33363          1648.31639          1019.12112          1346.59291          1552.16671           493.71322           595.61046          1342.94490          1613.60419           538.95708           452.02780          1443.12863          1869.55595           564.27994          2117.55727          1909.87762           945.69882           707.47919          2137.10414           318.39706          1569.22416           390.99207          2305.24435          1265.78372          1196.49802           495.70151          2431.33245           473.14085          1969.15545           508.02345          1425.26106          1763.66355          1943.09195          1684.53834           729.46202           762.03645           674.80323           305.24067           405.72996           974.41994           813.68088          3771.15873          2847.65820          1148.81851          2050.25122          1410.06881          1848.14626           718.06853           507.62245           975.45377           869.65233           636.33975           904.11512          2584.55849          1204.60867          2470.20519           600.93000          2758.33573           295.35009           514.84195          2645.31949          1875.22840          1235.51537           429.59969           308.78962           871.23049          1689.50611          1420.20165          1736.35513          1055.21372          4057.44425          2191.58933           408.37663          2052.72169          1299.56010           569.08853           423.48731           389.98490           622.26759          1193.69301          2440.86651           445.34410          1247.97702           509.66541           929.08874          1328.76488          1123.23936           403.25028           601.16103           654.31511           401.52681           558.21446          1272.41222           330.09388          1091.59709          1977.38711          1388.91087          3166.07312          2235.33058          1601.53134          2333.59459          1423.17901          1387.12268          1349.79142          2720.63675           620.84452           967.22820           451.62090          2485.08790           297.42426          1744.23514           478.92868           478.67475          1921.26003           281.31835          1923.51385          1640.78675           678.00183          1873.53645           984.40007           611.87833           710.51033           668.97888          3084.20491           525.66517          1980.40396           499.41535           467.51303           437.15112          1576.92302           415.12835          2019.66223           909.26373          2218.30106          1035.00117          1960.13283          2552.35633          2000.14604           414.82610          1559.71451          2069.76224           427.50156           722.88653           639.71779           445.52610          1367.93302           315.51857           942.52163           938.35106          2098.36942           478.96295          2252.57652           582.02795           482.39533           982.02412           354.25190          2241.57548           673.23568          1843.04925          2037.95180          1413.36065           513.38295           483.19954           635.37143          1064.76462           439.44750          2423.76584          2691.64840           394.26873          1817.02572          1296.60682          1489.75793          1966.87385           413.34720           692.12682           536.09180           320.90332          2021.43534           800.20483           391.88812           487.52028          1181.44254          2943.72153           420.86178          3509.47608           376.03255           890.26460           459.87945           533.33827          1197.89409           457.40504          1375.49089          1053.92080          3063.30158          1679.68803          1936.16869           535.44426          1529.18710           347.99875           392.57215           586.92920           560.44699          3400.32587           598.23454          2059.68216           456.09409          1918.39845           457.05520           548.25547          1782.87762          1212.75021          1010.97418           451.46431          2000.07212           480.41747          2570.11208           771.50430           437.30895           465.14281          1981.35419           481.76660          1531.17015           343.05387           409.79352           859.18824          1496.17393           916.13405           554.42783          1331.95114           533.87724           422.95544          2073.57199          1669.74452          2820.69020           441.90992          1285.62323          1384.24417          1053.25428           307.60501          2819.12425           388.59279           440.64619           424.54030          1957.47491          1342.71941           473.04448          1778.49163          2350.05368           284.99963          1326.28000           528.38520          1358.10673           440.08739          1477.30594           717.20556           350.18829          1407.06565          1362.04141           456.17630           825.50499           598.35168          1351.74133          1702.65191          1048.49408           515.83627           646.50457          1334.74041          1426.65896          1308.43022           859.65546           526.96039           941.27048          2003.46103          1579.07846          1470.49703          2139.32941          1047.23463           643.82133          1166.16994          2370.83261           681.06296           829.54594           674.93546          1650.95186          1010.61018           388.87360          2065.33381          1408.83857          1287.47667           303.34411          1589.52639           522.84098          1376.88891           490.31208          1326.88844           485.59544           460.18771          1917.25714          1060.27782          1437.77754          1466.02962           614.18943          1896.07646          1308.55301          3775.67372           638.19282          1183.33533          2090.82912          1148.98422          1112.39741          1270.95778          1209.96272          4348.53602           842.17930          3543.84580          1516.39570          1474.45589          1236.21800          1633.50642           819.32070          2201.26395           917.92150          1363.23810           440.14457          1789.14880          1319.49636           877.39608          1336.52069          1934.30370           814.22704           888.76395          1214.33952          1670.28628          1586.68037           888.68541          1734.27120           883.56477           298.50420          1792.88677          4069.79733          1090.02415           404.36892          1484.85699           701.24824          1118.49951          1891.39325           507.48000           539.79279          1910.24546          2841.27994          1278.89280           413.87686           702.17566           766.16768          1276.56231          1173.95413          1074.31693          1496.19298           787.33874          1445.03124           749.70600          1084.87671          2684.14756          1742.49953           646.43078           374.04788           543.23527          1286.91360           759.48001          1239.84469          3836.65662          1264.02839           375.43973           479.85550          1288.32569          1221.49059           885.19738           432.16364          3385.86336          1376.64026           391.09038          3505.54575          2144.13773           419.20244          1384.60139          1249.78923          1092.49364          1219.32447          1098.09041           566.17440          1556.55554          1418.32830          1438.36156          1310.07675           682.72430          1665.94281           471.52729          1245.39162           602.51163           436.32611           701.93895          1632.19328          1132.56445           932.95748           456.16935           425.42519          1623.57925          1171.77922          3851.45235          4174.06108          3121.76162          2154.39182          1990.94900          2117.77846          3326.10148          5019.61497           647.48757          4384.12470           402.31493          1063.99983          1338.25895           687.45523          3771.51882          5401.59465          1237.03175           473.23841          2139.13954          2720.01496           758.04160           805.91578          1367.49548          4466.64969          1392.62860          2043.29934           917.97723           652.80716          1333.21291          1652.37473           473.14287          3544.84338           524.06474          1478.09440          5278.20950          3927.92165          1781.11224          4942.89333           300.73408           887.23047           479.94684          1912.64119          2774.22627          1760.39966          2873.03471          1947.47470          2583.66655           755.76111          1523.60488          1320.84987          1776.52765          8435.82423          3217.89813          1000.92161          4899.58898          4203.92075           766.18245           694.50322          5305.30776          2720.16697          4349.22979          4753.97421          1562.80426           852.16596           630.93373           534.84609           792.72728          4210.78982          1668.87068           990.53172          1597.95746           336.16144          1020.12730          1668.69063          3340.31691          1059.28959           853.28135           711.37753           790.21571          1567.87840          1594.32078           850.80236          2968.81499          2639.12925          3493.69950          3153.19246          5749.97206          4463.60034          2498.05607           518.97536          4137.91863          1102.57775          1570.16799           681.23098          1386.26856           925.97812           373.84015          6105.53390          5103.43537          1432.22739          1715.05304          2855.91750          1944.74903          3295.44557          2998.67360           895.38526          1313.86473           547.93560           820.50811           370.53020           541.98172           792.69316           603.69063          2179.65462          4699.21032          3317.64419          1460.17819          2159.60379          1375.63441          1660.47473          8056.79558          5228.62353          1825.07716           373.20626           600.46682          5420.54093           644.07460          4020.86375          4131.44999          1001.23078          2400.03084           683.10770           927.00291          1015.61104          2465.92754          2531.24874          2721.27300           646.66403           477.47947          1097.48599           369.03588           565.58032           473.23978          3312.13038          5456.86421           474.91589          2950.29967           809.02816          2553.19473          1193.98959           673.40179           626.98026           648.33869           634.46790          2153.72702           735.71199          1427.56694           668.51707          2343.57382          1884.64199          3906.16734          2474.15446           610.64185           525.71290           338.28392          2913.19837           740.05571           737.36868          1260.60387          2649.48457           745.30288           811.08420           510.92458          1244.29345          1060.21281          1594.02399          1370.13311           601.14434           707.04564           673.71250          2639.70713          2110.55664          1166.75275          7755.29461          1010.23473           885.91970           903.54584          1615.74894          2359.39576          1503.82871          1553.06355          1586.13294          2592.57669           636.91432          7118.87963          1433.02010          2756.58960           812.67179          1101.44494          3846.84878          2656.46409           703.97912          1082.57825          3041.81421           437.98443           523.28964          1211.09187          2509.39037          5605.28122          1458.82957          7129.74276          1308.36578          1680.01452          1465.19757          1158.60029           424.95877           796.09279          2748.54772           714.53016          4199.80005           656.32304          3197.38185           798.91057           694.75691          1435.23247          1975.38728          2922.90675          4478.56652          2652.69552          1458.42941          1747.29134          1214.43413          5933.25990          7398.46243          2073.38494           871.87265          2914.50970           607.60320          1077.54364           765.11059          2707.83782          1096.42193           976.48701           587.15670           608.59912          3486.91071          1032.45328           761.62287          6034.86337          3809.17741          2375.42713          1447.09273          7960.18249           746.16254          2195.84076          2735.78570          2296.65014          1145.35365          2894.21361          5552.18874          1687.13348           426.96720           674.61393           882.47171          1751.83919          1770.93350           666.52979           637.49413          6098.92686           762.23036          1169.99535          1868.68247          3622.21729          5158.64404           473.58990          1325.87732           826.00758          1094.35083          1805.50304           728.78570           814.13461          1433.45372           821.32028           650.97289           397.19753           814.43856          3072.16085           477.94146          3091.52544          1634.29747          2014.71059          1403.07848          1753.44891          1548.03729           394.44472          3929.27897          1568.44117          2066.19360          1986.25919          2223.76774          5326.82706           927.80949          5424.19784           577.63231           684.28322          1567.50429          1117.45417          7549.60059          2633.86601           886.45722          1668.54938          4005.57320          3017.40446           669.85278          5410.92339          1423.66617          2547.45165          1065.91694          3409.23340          3326.22703           515.16136          3212.82843          3573.89244          2400.19327          5864.74315           832.28884           797.87617          1110.55614          2267.20268           449.16633          7542.66221          4047.84420           670.52529          1589.68441          1681.94657          2099.71766           764.53522          1083.71645         13360.18704           708.98754          2028.40345          1363.04505           420.98752           706.26001          2500.14678          4624.56132          6239.17584          1303.14794          2411.77193          2409.68862          4739.96348           731.85886          1428.31283          2186.39461          1753.78603          5438.03462           567.32489          1103.16435          2788.95152           801.84210          4067.97469          2055.08645          6849.30004          2460.90539          1141.81964          1084.31870           618.08090          5749.80518          7323.28781          1801.84398           293.06605           355.95447           761.24330           767.39340          6422.12650          1348.15250          2277.96940          3002.10805          2249.67319          5387.36805          5902.88219           361.91894           628.76882           758.66165          1234.91160           633.71779          4099.17910          3777.54817          1345.62510           717.66497           983.33486          2076.37928          3321.60183          2130.98313          2121.74621           887.06737          4316.55310          6821.59043           423.90639           706.56630          1852.37855          7751.09150          1969.37422          2718.78513          4646.98852           761.06449          1764.63603          4468.54963           550.47226          1429.76088          1014.51642          5292.98096           876.60227          1746.14880          2787.64298          5604.11263          4994.42260          6101.38869          4524.53681          3870.64144          1824.94965           889.00311          3367.75489          8717.72820           673.82926          2590.64778          2418.72840           294.36324          2254.51993          3291.80940          2724.22698           423.59839          4352.63229           836.54971          2999.53523          3939.19111          1868.16126           790.26241          3220.62394          3361.50779          4988.50852          6243.58731          5524.19251           690.77629           650.97805          1265.22197          4729.47560          1062.36875          2544.20067           883.19882           637.614