# vtk DataFile Version 3.0
Output from R2
ASCII
DATASET UNSTRUCTURED_GRID
POINTS       1414 double
     0.00000  2968.10000   0.
     1.54000  2966.60000   0.
     3.08000  2964.90000   0.
     4.61000  2964.10000   0.
     6.15000  2963.30000   0.
     7.69000  2962.60000   0.
     9.23000  2961.50000   0.
    10.76000  2960.70000   0.
    12.30000  2960.00000   0.
    13.84000  2959.30000   0.
    15.38000  2958.70000   0.
    16.91000  2958.10000   0.
    18.45000  2957.30000   0.
    19.99000  2956.60000   0.
    21.52000  2955.80000   0.
    23.06000  2955.00000   0.
    24.60000  2954.30000   0.
    26.14000  2953.50000   0.
    27.68000  2952.80000   0.
    29.21000  2951.90000   0.
    30.75000  2951.10000   0.
    32.29000  2950.20000   0.
    33.83000  2949.50000   0.
    35.36000  2948.70000   0.
    36.90000  2948.10000   0.
    38.44000  2947.30000   0.
    39.98000  2946.70000   0.
    41.51000  2946.10000   0.
    43.05000  2945.50000   0.
    44.59000  2945.10000   0.
    46.13000  2944.50000   0.
    47.66000  2944.10000   0.
    49.20000  2943.60000   0.
    50.74000  2943.40000   0.
    52.28000  2943.00000   0.
    53.81000  2942.50000   0.
    55.35000  2942.10000   0.
    56.89000  2941.60000   0.
    58.43000  2941.00000   0.
    59.96000  2940.60000   0.
    61.50000  2940.10000   0.
    63.04000  2939.50000   0.
    64.58000  2939.10000   0.
    66.11000  2939.20000   0.
    67.65000  2939.20000   0.
    69.19000  2939.10000   0.
    70.73000  2938.90000   0.
    72.26000  2938.60000   0.
    73.80000  2938.30000   0.
    75.34000  2938.50000   0.
    76.88000  2938.70000   0.
    78.41000  2938.60000   0.
    79.95000  2938.80000   0.
    81.49000  2938.90000   0.
    83.03000  2939.10000   0.
    84.56000  2939.10000   0.
     3.42000  2957.55000   0.
     8.97000  2954.51000   0.
    14.52000  2951.86000   0.
    20.07000  2949.38000   0.
    25.63000  2946.59000   0.
    31.18000  2943.67000   0.
    36.73000  2940.99000   0.
    42.28000  2938.62000   0.
    47.83000  2936.87000   0.
    53.39000  2935.46000   0.
    58.94000  2933.69000   0.
    64.49000  2931.95000   0.
    70.04000  2931.81000   0.
    75.60000  2931.36000   0.
    81.15000  2931.70000   0.
     0.51333  2967.60000   0.
     1.02667  2967.10000   0.
     2.05333  2966.03333   0.
     2.56667  2965.46667   0.
     3.59000  2964.63333   0.
     4.10000  2964.36667   0.
     5.12333  2963.83333   0.
     5.63667  2963.56667   0.
     6.66333  2963.06667   0.
     7.17667  2962.83333   0.
     8.20333  2962.23333   0.
     8.71667  2961.86667   0.
     9.74000  2961.23333   0.
    10.25000  2960.96667   0.
    11.27333  2960.46667   0.
    11.78667  2960.23333   0.
    12.81333  2959.76667   0.
    13.32667  2959.53333   0.
    14.35333  2959.10000   0.
    14.86667  2958.90000   0.
    15.89000  2958.50000   0.
    16.40000  2958.30000   0.
    17.42333  2957.83333   0.
    17.93667  2957.56667   0.
    18.96333  2957.06667   0.
    19.47667  2956.83333   0.
    20.50000  2956.33333   0.
    21.01000  2956.06667   0.
    22.03333  2955.53333   0.
    22.54667  2955.26667   0.
    23.57333  2954.76667   0.
    24.08667  2954.53333   0.
    25.11333  2954.03333   0.
    25.62667  2953.76667   0.
    26.65333  2953.26667   0.
    27.16667  2953.03333   0.
    28.19000  2952.50000   0.
    28.70000  2952.20000   0.
    29.72333  2951.63333   0.
    30.23667  2951.36667   0.
    31.26333  2950.80000   0.
    31.77667  2950.50000   0.
    32.80333  2949.96667   0.
    33.31667  2949.73333   0.
    34.34000  2949.23333   0.
    34.85000  2948.96667   0.
    35.87333  2948.50000   0.
    36.38667  2948.30000   0.
    37.41333  2947.83333   0.
    37.92667  2947.56667   0.
    38.95333  2947.10000   0.
    39.46667  2946.90000   0.
    40.49000  2946.50000   0.
    41.00000  2946.30000   0.
    42.02333  2945.90000   0.
    42.53667  2945.70000   0.
    43.56333  2945.36667   0.
    44.07667  2945.23333   0.
    45.10333  2944.90000   0.
    45.61667  2944.70000   0.
    46.64000  2944.36667   0.
    47.15000  2944.23333   0.
    48.17333  2943.93333   0.
    48.68667  2943.76667   0.
    49.71333  2943.53333   0.
    50.22667  2943.46667   0.
    51.25333  2943.26667   0.
    51.76667  2943.13333   0.
    52.79000  2942.83333   0.
    53.30000  2942.66667   0.
    54.32333  2942.36667   0.
    54.83667  2942.23333   0.
    55.86333  2941.93333   0.
    56.37667  2941.76667   0.
    57.40333  2941.40000   0.
    57.91667  2941.20000   0.
    58.94000  2940.86667   0.
    59.45000  2940.73333   0.
    60.47333  2940.43333   0.
    60.98667  2940.26667   0.
    62.01333  2939.90000   0.
    62.52667  2939.70000   0.
    63.55333  2939.36667   0.
    64.06667  2939.23333   0.
    65.34500  2939.15000   0.
    66.88000  2939.20000   0.
    68.42000  2939.15000   0.
    69.70333  2939.03333   0.
    70.21667  2938.96667   0.
    71.24000  2938.80000   0.
    71.75000  2938.70000   0.
    72.77333  2938.50000   0.
    73.28667  2938.40000   0.
    74.31333  2938.36667   0.
    74.82667  2938.43333   0.
    75.85333  2938.56667   0.
    76.36667  2938.63333   0.
    77.64500  2938.65000   0.
    78.92333  2938.66667   0.
    79.43667  2938.73333   0.
    80.72000  2938.85000   0.
    82.00333  2938.96667   0.
    82.51667  2939.03333   0.
    83.79500  2939.10000   0.
     0.08400  2959.57200   0.
     1.19600  2958.89800   0.
     2.30800  2958.22400   0.
     4.53000  2956.94200   0.
     5.64000  2956.33400   0.
     6.75000  2955.72600   0.
     7.86000  2955.11800   0.
    10.35750  2953.84750   0.
    11.74500  2953.18500   0.
    13.13250  2952.52250   0.
    15.90750  2951.24000   0.
    17.29500  2950.62000   0.
    18.68250  2950.00000   0.
    21.18200  2948.82200   0.
    22.29400  2948.26400   0.
    23.40600  2947.70600   0.
    24.51800  2947.14800   0.
    26.74000  2946.00600   0.
    27.85000  2945.42200   0.
    28.96000  2944.83800   0.
    30.07000  2944.25400   0.
    32.56750  2943.00000   0.
    33.95500  2942.33000   0.
    35.34250  2941.66000   0.
    38.11750  2940.39750   0.
    39.50500  2939.80500   0.
    40.89250  2939.21250   0.
    43.66750  2938.18250   0.
    45.05500  2937.74500   0.
    46.44250  2937.30750   0.
    49.22000  2936.51750   0.
    50.61000  2936.16500   0.
    52.00000  2935.81250   0.
    54.77750  2935.01750   0.
    56.16500  2934.57500   0.
    57.55250  2934.13250   0.
    60.32750  2933.25500   0.
    61.71500  2932.82000   0.
    63.10250  2932.38500   0.
    65.87750  2931.91500   0.
    67.26500  2931.88000   0.
    68.65250  2931.84500   0.
    71.43000  2931.69750   0.
    72.82000  2931.58500   0.
    74.21000  2931.47250   0.
    76.98750  2931.44500   0.
    78.37500  2931.53000   0.
    79.76250  2931.61500   0.
    82.53750  2931.75500   0.
    83.92500  2931.81000   0.
     6.60134  2937.05984   0.
    20.80435  2932.52560   0.
     3.78758  2946.36592   0.
    15.48523  2940.98228   0.
    29.30091  2934.50364   0.
    23.90594  2939.46561   0.
    40.87322  2931.62711   0.
     1.03219  2951.87344   0.
    10.83406  2946.32292   0.
    20.42668  2943.42459   0.
    48.80952  2930.83467   0.
    35.50309  2935.49258   0.
     7.54365  2949.73854   0.
    28.57967  2939.84283   0.
    15.90963  2945.83181   0.
    44.30452  2933.27820   0.
    -0.12722  2955.42655   0.
    24.47411  2943.04615   0.
     4.45051  2952.86019   0.
    40.01017  2935.22543   0.
    52.75593  2931.58993   0.
    13.75183  2934.27842   0.
    32.31862  2938.44653   0.
     0.40990  2931.04902   0.
    19.20708  2946.27332   0.
    57.19103  2930.55709   0.
    -0.97178  2947.27328   0.
    19.39705  2939.49643   0.
    11.08068  2950.12444   0.
    32.86215  2930.47012   0.
     7.41320  2941.82707   0.
    13.76382  2948.77946   0.
    27.17579  2942.79365   0.
     7.27112  2952.68663   0.
     2.71547  2954.94653   0.
    22.91159  2945.17994   0.
     2.00816  2941.86911   0.
    24.73355  2934.79062   0.
    47.86753  2934.00196   0.
    50.62083  2933.29089   0.
    60.15732  2930.28185   0.
    37.65425  2937.53830   0.
    44.64836  2929.77041   0.
    10.93416  2939.02064   0.
     4.26476  2949.76242   0.
    36.78915  2931.78219   0.
     7.36345  2946.13476   0.
    30.92470  2941.06806   0.
     6.19921  2931.10091   0.
    35.16618  2938.51604   0.
    16.36294  2929.87801   0.
    13.43632  2943.77014   0.
    42.64967  2935.50406   0.
    26.89596  2931.23775   0.
     1.59760  2936.73753   0.
    17.19200  2948.13905   0.
    -0.61497  2957.60981   0.
    26.49360  2937.36117   0.
     9.56799  2951.50953   0.
    17.55858  2943.77119   0.
    55.26825  2932.33039   0.
    22.03247  2936.46128   0.
    16.10828  2937.24515   0.
    22.48452  2941.40733   0.
    20.86327  2946.43955   0.
    29.71126  2937.35408   0.
    32.14062  2935.59882   0.
    45.26358  2935.44707   0.
    29.19256  2942.39482   0.
    25.22337  2944.48902   0.
    25.77440  2940.40763   0.
     5.12787  2951.33100   0.
     9.72036  2943.07255   0.
     0.63027  2944.64860   0.
     5.15669  2954.13690   0.
    33.80274  2940.56791   0.
     1.57076  2956.41210   0.
     9.31000  2947.97928   0.
     9.87726  2933.53233   0.
    53.60824  2932.85261   0.
    40.63972  2936.89193   0.
    13.47285  2946.23828   0.
    37.68088  2934.75035   0.
    46.32767  2931.88185   0.
    18.64740  2941.16071   0.
    13.09413  2950.32980   0.
    18.01744  2935.92389   0.
     0.55332  2948.73049   0.
     5.35766  2947.55011   0.
    42.44669  2933.52960   0.
    57.75733  2932.24094   0.
    23.68300  2931.83870   0.
    19.94397  2947.74183   0.
    61.81887  2931.15328   0.
[...]
POINT_DATA      1414
CELL_DATA      2568
SCALARS Resistivity(ohm.m) double 1
LOOKUP_TABLE default
          1162.11358          1675.63251          2128.35374          1118.59218           498.60110          1976.87778          1299.67111          1476.84167          1650.08781          1887.77179           792.27472          1885.84972           560.14788          2339.87967          2327.56458          1814.78240          1550.46217           473.52559           470.67686          2174.02795          1230.97493          1796.79987          1261.34429           640.77906          1813.76288           491.00917           277.97491          1962.45499          2292.69743          2077.74943           485.99916           488.42517          1612.72534           376.12447           431.04434          1646.78426           778.60132           966.44193          1217.84890          1521.67259          1836.03648           692.56629           487.20693          2425.35159           369.62345           392.70455          3130.03734           845.31606           591.62320           997.78640          2581.43074          1833.43887          1046.65465          1560.52718          2251.38146           924.01613           412.84014          2002.40651           424.49395          1116.46755           504.27662          2123.01426           478.61730          1764.19913           285.16015          1553.40113          1947.48838          1845.62202           325.54976           739.14075           454.22221           839.49753          2087.63814           453.29169           356.68026          3156.03337          1408.21460           462.06903           347.69001          2909.69594          2687.56820          1430.12118           409.88690           393.54109          2026.04650           804.74164           380.38209          2160.12268           929.79462          1762.08996          1069.98330           393.54751          1990.10150           399.93708          1774.16736          2005.15754           550.97492          1239.61752          2213.69633          1017.79162          1506.33389           514.46975           613.89699           718.16038           955.29336          1688.73406           492.97600           968.92082          2130.95595          1312.32796           440.83183          1159.55376          2686.63112          1698.30687          2068.63007          1291.49146          1087.91173          1483.78707           464.78325           362.69140          2074.49416          1377.10876          3216.16682           717.91006           526.44189          1931.91340          2548.69117          3462.62949          1721.19877          1406.93919          1882.29674          1103.66944          1216.91504          2235.09040           833.16032          3044.53710           427.65119          1648.10845          1020.11153          1344.55196          1552.64150           495.85783           598.76799          1338.37435          1613.81479           541.82623           452.01528          1442.87351          1869.57757           565.87945          2124.80275          1909.10192           946.76135           707.93493          2132.19317           318.68260          1570.48691           391.40203          2301.62207          1263.26377          1195.44469           497.66902          2427.93836           473.23602          1972.70037           509.92989          1421.60000          1768.29623          1942.72695          1684.78149           729.90417           764.55515           678.31263           305.76629           405.17392           971.59645           816.36371          3759.90159          2840.34678          1148.54645          2045.73001          1408.63259          1849.88365           721.55045           510.14870           976.92077           872.14575           639.50317           902.34974          2579.13232          1201.79455          2465.18476           602.97535          2754.51396           295.85021           516.02063          2641.51610          1879.18452          1234.23944           429.73378           308.89991           868.98132          1693.88380          1419.01886          1741.01901          1055.38663          4044.20968          2203.14350           408.48638          2060.71385          1297.61998           572.22569           423.32849           390.65361           623.37929          1192.31435          2435.76198           447.19263          1246.96499           511.45830           925.91326          1328.20529          1123.19241           403.92805           604.06783           656.53013           401.12308           559.73790          1269.64402           330.21153          1087.79101          1986.76182          1388.15777          3157.15242          2229.81485          1603.97871          2328.49590          1422.51170          1386.96461          1348.57115          2715.40745           623.00666           968.58455           452.30095          2480.37934           297.81758          1746.95685           479.88430           478.84136          1926.99617           281.68716          1932.67283          1644.47636           680.87785          1874.30206           985.54770           613.25251           713.67239           671.97645          3076.24092           527.32148          1986.34420           498.83212           468.20560           436.27149          1579.29973           415.83372          2016.07330           911.18675          2228.31616          1031.95889          1969.70751          2547.64262          1997.32102           416.38792          1560.71171          2080.13288           428.82485           722.99196           640.91826           446.71019          1366.15155           316.02174           944.24750           937.64065          2095.09131           479.67121          2246.44056           584.49439           481.52915           978.45997           354.80537          2237.03216           675.23932          1843.80204          2032.33134          1413.40294           515.57144           483.97517           638.21139          1059.42730           439.11376          2419.45028          2685.38158           394.21841          1816.70150          1294.44019          1489.53802          1966.05114           413.18323           694.67868           537.91315           321.36701          2016.00968           799.84135           392.52528           488.71904          1177.73365          2936.78061           422.49130          3499.17496           375.48449           892.62860           458.98923           535.11884          1195.48373           457.12287          1373.70773          1053.64822          3056.83318          1681.67044          1936.88550           536.53529          1530.77122           347.91847           392.12271           589.15708           563.38793          3391.37557           599.56419          2057.25251           456.29133          1919.29937           456.31083           551.05950          1782.69351          1212.14745          1012.86621           450.51273          1998.01367           480.28895          2564.43074           774.60304           437.90844           465.63151          1980.17051           483.15539          1532.79424           343.40431           410.08095           857.74093          1495.29923           916.32504           555.54266          1330.02728           534.83560           423.59336          2066.34792          1673.99967          2814.12687           442.76138          1283.15411          1383.06034          1048.91701           307.96599          2813.03230           387.89519           442.37969           424.28761          1956.57842          1341.23717           473.33014          1778.32289          2345.18188           285.24466          1324.20488           531.07014          1357.02154           440.05860          1478.01947           719.20157           350.32640          1405.64854          1357.25335           455.82540           825.37608           599.67810          1348.29439          1702.59889          1047.16204           517.90121           648.18970          1333.67444          1425.29112          1307.33012           862.51652           528.79705           943.33072          1998.78646          1581.13839          1471.22663          2136.14208          1045.07937           645.33017          1160.26851          2365.86850           681.88112           832.11217           677.07662          1654.72559          1009.20259           388.77829          2062.36782          1408.77907          1286.61063           303.78826          1590.28897           525.18378          1375.43549           489.42614          1326.11637           485.10252           460.11460          1923.71881          1060.75148          1437.21198          1466.57747           615.88441          1895.47835          1304.11785          3766.19350           639.28964          1181.49531          2100.17219          1146.95402          1112.29844          1268.26674          1207.94584          4334.42843           845.14028          3536.00849          1517.45299          1473.62489          1231.36536          1635.70873           822.10166          2198.22507           920.12720          1362.63009           440.18323          1790.41779          1318.10946           880.00072          1334.01556          1937.25753           817.32476           887.88769          1211.49555          1672.36860          1589.16895           886.10265          1735.33203           885.72444           298.95165          1794.83646          4056.57180          1088.09363           403.31778          1485.42115           703.89020          1112.72603          1898.46318           508.72925           538.37237          1914.51908          2840.39838          1276.43085           414.41810           702.79744           769.08849          1274.77313          1171.74107          1073.44591          1495.30387           790.54363          1443.78129           753.12245          1085.21180          2678.89826          1743.00068           647.83038           374.54334           545.49339          1286.19226           762.85763          1239.08651          3824.98646          1262.62441           375.54607           480.66385          1286.53468          1220.68012           886.90790           432.66140          3375.81856          1374.84268           391.36045          3495.34298          2139.95121           419.76734          1384.30132          1248.03019          1092.32740          1217.58842          1098.13746           567.55849          1558.38955          1416.89396          1437.09258          1306.63184           686.04067          1670.03649           472.01288          1241.31159           603.97651           436.71978           705.41152          1634.78163          1132.34598           934.82506           456.73608           425.96546          1625.45078          1171.09381          3854.08980          4162.85617          3124.72534          2162.04538          1998.50431          2111.51772          3335.59178          5023.78477           649.13097          4406.18443           397.17896          1067.13003          1336.05036           687.58682          3753.99832          5406.15735          1235.15161           473.26215          2140.22085          2728.46273           758.21413           802.11527          1364.99940          4462.57629          1385.35101          2036.95068           920.54880           652.64551          1335.11917          1650.29890           473.20745          3552.20776           522.47959          1474.77862          5282.94406          3932.41551          1786.65451          4929.09545           300.80481           889.77984           478.40643          1911.89106          2776.36213          1760.71263          2884.19388          1945.19017          2590.09023           756.75057          1520.80675          1315.51505          1776.45515          8382.86400          3218.90116          1005.21341          4888.24958          4205.03949           766.64910           692.86695          5315.74172          2724.16413          4348.14577          4746.93171          1559.28327           857.27815           632.88493           537.60673           795.93637          4221.56584          1667.26620           994.25859          1596.53537           335.90257          1021.76865          1678.43092          3335.74172          1055.57863           847.49458           712.86785           781.44408          1566.51748          1590.26340           846.95191          2974.55398          2642.79483          3496.56169          3159.96966          5732.41293          4459.77177          2507.64361           517.79983          4132.26233          1104.84409          1568.62571           684.70606          1383.20034           921.31321           374.96085          6102.12521          5135.55545          1429.84024          1711.21988          2863.31620          1945.19908          3278.08822          2994.45934           900.00544          1317.00562           545.21630           814.70373           370.19375           541.08846           801.30148           601.60032          2180.06359          4705.42137          3304.51456          1456.75821          2151.98864          1383.59319          1658.31478          8045.00262          5212.00712          1815.73612           373.04884           603.74720          5428.60191           643.40913          4000.24236          4122.22220          1003.09889          2403.65763           682.90114           928.39790          1017.29640          2473.61277          2537.65480          2717.48006           647.51757           476.56577          1097.86706           369.64317           564.39512           472.49717          3320.20063          5473.22275           475.56116          2952.05532           806.75208          2559.22377          1191.43956           669.66259           624.29285           646.31881           637.39698          2155.16613           731.77358          1419.44360           665.52438          2343.99438          1886.92040          3891.80565          2466.15421           602.12946           520.99694           338.51292          2918.95376           746.86447           737.49319          1263.59176          2641.60959           743.58885           814.38231           510.76584          1245.63925          1056.98816          1598.38097          1365.47974           602.44430           709.27537           671.19865          2643.66797          2113.86791          1163.62938          7755.82063          1012.23689           891.05516           906.01769          1621.37847          2367.84824          1501.11426          1546.43560          1581.66647          2595.84797           648.63642          7120.48080          1431.83202          2761.43211           816.25513          1102.02977          3846.21697          2657.37887           700.98793          1083.15728          3048.03865           438.57687           522.75710          1208.60731          2504.47072          5609.72471          1458.27830          7111.65175          1315.76150          1675.23545          1462.24514          1156.75822           424.32889           798.84275          2757.39269           715.47995          4210.92988           657.20085          3200.32156           798.66039           686.21122          1430.65780          1965.76928          2932.72614          4451.16552          2656.43469          1452.22934          1744.86784          1214.02436          5968.20591          7389.48134          2078.39549           871.32137          2910.20501           609.34584          1078.07965           762.10219          2721.24921          1096.35206           973.51402           585.06545           610.18575          3481.30914          1040.02200           766.56070          6005.34286          3792.60666          2369.11668          1443.16801          7930.56426           743.66419          2192.49223          2716.69598          2285.55724          1152.93724          2893.29603          5556.22175          1689.94387           425.86917           671.62209           885.32191          1749.97674          1768.60225           670.28740           636.81592          6070.39779           757.07852          1170.80647          1867.65496          3623.48177          5184.13313           475.08757          1332.25000           828.86691          1099.56019          1807.37333           732.18690           815.61104          1439.86783           830.90594           651.61305           396.97521           813.32667          3080.07963           475.95611          3095.83066          1639.59216          2013.63389          1396.93253          1748.49299          1545.80280           394.01095          3953.09622          1569.88318          2068.63707          1992.27153          2222.78989          5362.77817           928.29176          5407.94682           578.24138           687.07262          1580.53241          1116.60459          7536.15464          2633.20268           889.86794          1681.92572          3976.26583          3018.32213           669.81816          5405.44244          1424.06095          2547.36554          1076.04486          3401.31380          3311.94898           515.03153          3212.21806          3580.48316          2397.93850          5885.80259           836.05684           798.45743          1109.93438          2267.03466           449.66167          7537.71730          4052.01282           670.31481          1585.02934          1674.70872          2099.64317           765.13149          1084.30531         13361.20830           710.37611          2020.13631          1359.39040           421.58635           703.93163          2501.36927          4618.37497          6270.01084          1285.84290          2400.52834          2415.28182          4723.99751           729.81217          1424.44555          2187.26823          1755.93534          5441.04539           565.42552          1102.79351          2785.09721           805.46478          4051.55212          2053.38154          6826.27520          2430.26779          1131.34275          1079.68047           620.14294          5773.11994          7302.11712          1798.35321           294.00830           355.79447           760.90242           767.75879          6404.76218          1344.18135          2305.27381          3009.43189          2245.71058          5398.06077          5921.90525           361.88102           630.24120           761.73828          1229.01864           637.12933          4092.67932          3795.44237          1341.13082           714.40970           985.46677          2065.86606          3332.95597          2125.43675          2115.07889           893.79315          4335.75363          6823.25030           425.10547           706.44668          1852.54807          7732.45417          1976.72932          2687.97164          4628.58169           760.72438          1763.28521          4477.76203           550.58630          1425.78245          1009.71406          5297.02485           877.45282          1747.29220          2797.19900          5597.59916          5005.45765          6080.75088          4527.25837          3865.75817          1819.48100           882.18518          3362.70331          8718.64944           674.30369          2582.72491          2418.15284           294.82716          2251.51821          3307.36047          2731.64239           423.43277          4364.29571           839.40446          3002.47769          3939.11809          1866.42282           796.49587          3203.98241          3353.58631          5012.67713          6230.39822          5505.68739           689.84272           651.42960          1267.94238          4715.94821          1060.36453          2549.88496           885.24101           635.577