# vtk DataFile Version 3.0
Output from R2
ASCII
DATASET UNSTRUCTURED_GRID
POINTS       1414 double
     0.00000  2968.10000   0.
     1.54000  2966.60000   0.
     3.08000  2964.90000   0.
     4.61000  2964.10000   0.
     6.15000  2963.30000   0.
     7.69000  2962.60000   0.
     9.23000  2961.50000   0.
    10.76000  2960.70000   0.
    12.30000  2960.00000   0.
    13.84000  2959.30000   0.
    15.38000  2958.70000   0.
    16.91000  2958.10000   0.
    18.45000  2957.30000   0.
    19.99000  2956.60000   0.
    21.52000  2955.80000   0.
    23.06000  2955.00000   0.
    24.60000  2954.30000   0.
    26.14000  2953.50000   0.
    27.68000  2952.80000   0.
    29.21000  2951.90000   0.
    30.75000  2951.10000   0.
    32.29000  2950.20000   0.
    33.83000  2949.50000   0.
    35.36000  2948.70000   0.
    36.90000  2948.10000   0.
    38.44000  2947.30000   0.
    39.98000  2946.70000   0.
    41.51000  2946.10000   0.
    43.05000  2945.50000   0.
    44.59000  2945.10000   0.
    46.13000  2944.50000   0.
    47.66000  2944.10000   0.
    49.20000  2943.60000   0.
    50.74000  2943.40000   0.
    52.28000  2943.00000   0.
    53.81000  2942.50000   0.
    55.35000  2942.10000   0.
    56.89000  2941.60000   0.
    58.43000  2941.00000   0.
    59.96000  2940.60000   0.
    61.50000  2940.10000   0.
    63.04000  2939.50000   0.
    64.58000  2939.10000   0.
    66.11000  2939.20000   0.
    67.65000  2939.20000   0.
    69.19000  2939.10000   0.
    70.73000  2938.90000   0.
    72.26000  2938.60000   0.
    73.80000  2938.30000   0.
    75.34000  2938.50000   0.
    76.88000  2938.70000   0.
    78.41000  2938.60000   0.
    79.95000  2938.80000   0.
    81.49000  2938.90000   0.
    83.03000  2939.10000   0.
    84.56000  2939.10000   0.
     3.42000  2957.55000   0.
     8.97000  2954.51000   0.
    14.52000  2951.86000   0.
    20.07000  2949.38000   0.
    25.63000  2946.59000   0.
    31.18000  2943.67000   0.
    36.73000  2940.99000   0.
    42.28000  2938.62000   0.
    47.83000  2936.87000   0.
    53.39000  2935.46000   0.
    58.94000  2933.69000   0.
    64.49000  2931.95000   0.
    70.04000  2931.81000   0.
    75.60000  2931.36000   0.
    81.15000  2931.70000   0.
     0.51333  2967.60000   0.
     1.02667  2967.10000   0.
     2.05333  2966.03333   0.
     2.56667  2965.46667   0.
     3.59000  2964.63333   0.
     4.10000  2964.36667   0.
     5.12333  2963.83333   0.
     5.63667  2963.56667   0.
     6.66333  2963.06667   0.
     7.17667  2962.83333   0.
     8.20333  2962.23333   0.
     8.71667  2961.86667   0.
     9.74000  2961.23333   0.
    10.25000  2960.96667   0.
    11.27333  2960.46667   0.
    11.78667  2960.23333   0.
    12.81333  2959.76667   0.
    13.32667  2959.53333   0.
    14.35333  2959.10000   0.
    14.86667  2958.90000   0.
    15.89000  2958.50000   0.
    16.40000  2958.30000   0.
    17.42333  2957.83333   0.
    17.93667  2957.56667   0.
    18.96333  2957.06667   0.
    19.47667  2956.83333   0.
    20.50000  2956.33333   0.
    21.01000  2956.06667   0.
    22.03333  2955.53333   0.
    22.54667  2955.26667   0.
    23.57333  2954.76667   0.
    24.08667  2954.53333   0.
    25.11333  2954.03333   0.
    25.62667  2953.76667   0.
    26.65333  2953.26667   0.
    27.16667  2953.03333   0.
    28.19000  2952.50000   0.
    28.70000  2952.20000   0.
    29.72333  2951.63333   0.
    30.23667  2951.36667   0.
    31.26333  2950.80000   0.
    31.77667  2950.50000   0.
    32.80333  2949.96667   0.
    33.31667  2949.73333   0.
    34.34000  2949.23333   0.
    34.85000  2948.96667   0.
    35.87333  2948.50000   0.
    36.38667  2948.30000   0.
    37.41333  2947.83333   0.
    37.92667  2947.56667   0.
    38.95333  2947.10000   0.
    39.46667  2946.90000   0.
    40.49000  2946.50000   0.
    41.00000  2946.30000   0.
    42.02333  2945.90000   0.
    42.53667  2945.70000   0.
    43.56333  2945.36667   0.
    44.07667  2945.23333   0.
    45.10333  2944.90000   0.
    45.61667  2944.70000   0.
    46.64000  2944.36667   0.
    47.15000  2944.23333   0.
    48.17333  2943.93333   0.
    48.68667  2943.76667   0.
    49.71333  2943.53333   0.
    50.22667  2943.46667   0.
    51.25333  2943.26667   0.
    51.76667  2943.13333   0.
    52.79000  2942.83333   0.
    53.30000  2942.66667   0.
    54.32333  2942.36667   0.
    54.83667  2942.23333   0.
    55.86333  2941.93333   0.
    56.37667  2941.76667   0.
    57.40333  2941.40000   0.
    57.91667  2941.20000   0.
    58.94000  2940.86667   0.
    59.45000  2940.73333   0.
    60.47333  2940.43333   0.
    60.98667  2940.26667   0.
    62.01333  2939.90000   0.
    62.52667  2939.70000   0.
    63.55333  2939.36667   0.
    64.06667  2939.23333   0.
    65.34500  2939.15000   0.
    66.88000  2939.20000   0.
    68.42000  2939.15000   0.
    69.70333  2939.03333   0.
    70.21667  2938.96667   0.
    71.24000  2938.80000   0.
    71.75000  2938.70000   0.
    72.77333  2938.50000   0.
    73.28667  2938.40000   0.
    74.31333  2938.36667   0.
    74.82667  2938.43333   0.
    75.85333  2938.56667   0.
    76.36667  2938.63333   0.
    77.64500  2938.65000   0.
    78.92333  2938.66667   0.
    79.43667  2938.73333   0.
    80.72000  2938.85000   0.
    82.00333  2938.96667   0.
    82.51667  2939.03333   0.
    83.79500  2939.10000   0.
     0.08400  2959.57200   0.
     1.19600  2958.89800   0.
     2.30800  2958.22400   0.
     4.53000  2956.94200   0.
     5.64000  2956.33400   0.
     6.75000  2955.72600   0.
     7.86000  2955.11800   0.
    10.35750  2953.84750   0.
    11.74500  2953.18500   0.
    13.13250  2952.52250   0.
    15.90750  2951.24000   0.
    17.29500  2950.62000   0.
    18.68250  2950.00000   0.
    21.18200  2948.82200   0.
    22.29400  2948.26400   0.
    23.40600  2947.70600   0.
    24.51800  2947.14800   0.
    26.74000  2946.00600   0.
    27.85000  2945.42200   0.
    28.96000  2944.83800   0.
    30.07000  2944.25400   0.
    32.56750  2943.00000   0.
    33.95500  2942.33000   0.
    35.34250  2941.66000   0.
    38.11750  2940.39750   0.
    39.50500  2939.80500   0.
    40.89250  2939.21250   0.
    43.66750  2938.18250   0.
    45.05500  2937.74500   0.
    46.44250  2937.30750   0.
    49.22000  2936.51750   0.
    50.61000  2936.16500   0.
    52.00000  2935.81250   0.
    54.77750  2935.01750   0.
    56.16500  2934.57500   0.
    57.55250  2934.13250   0.
    60.32750  2933.25500   0.
    61.71500  2932.82000   0.
    63.10250  2932.38500   0.
    65.87750  2931.91500   0.
    67.26500  2931.88000   0.
    68.65250  2931.84500   0.
    71.43000  2931.69750   0.
    72.82000  2931.58500   0.
    74.21000  2931.47250   0.
    76.98750  2931.44500   0.
    78.37500  2931.53000   0.
    79.76250  2931.61500   0.
    82.53750  2931.75500   0.
    83.92500  2931.81000   0.
     6.60134  2937.05984   0.
    20.80435  2932.52560   0.
     3.78758  2946.36592   0.
    15.48523  2940.98228   0.
    29.30091  2934.50364   0.
    23.90594  2939.46561   0.
    40.87322  2931.62711   0.
     1.03219  2951.87344   0.
    10.83406  2946.32292   0.
    20.42668  2943.42459   0.
    48.80952  2930.83467   0.
    35.50309  2935.49258   0.
     7.54365  2949.73854   0.
    28.57967  2939.84283   0.
    15.90963  2945.83181   0.
    44.30452  2933.27820   0.
    -0.12722  2955.42655   0.
    24.47411  2943.04615   0.
     4.45051  2952.86019   0.
    40.01017  2935.22543   0.
    52.75593  2931.58993   0.
    13.75183  2934.27842   0.
    32.31862  2938.44653   0.
     0.40990  2931.04902   0.
    19.20708  2946.27332   0.
    57.19103  2930.55709   0.
    -0.97178  2947.27328   0.
    19.39705  2939.49643   0.
    11.08068  2950.12444   0.
    32.86215  2930.47012   0.
     7.41320  2941.82707   0.
    13.76382  2948.77946   0.
    27.17579  2942.79365   0.
     7.27112  2952.68663   0.
     2.71547  2954.94653   0.
    22.91159  2945.17994   0.
     2.00816  2941.86911   0.
    24.73355  2934.79062   0.
    47.86753  2934.00196   0.
    50.62083  2933.29089   0.
    60.15732  2930.28185   0.
    37.65425  2937.53830   0.
    44.64836  2929.77041   0.
    10.93416  2939.02064   0.
     4.26476  2949.76242   0.
    36.78915  2931.78219   0.
     7.36345  2946.13476   0.
    30.92470  2941.06806   0.
     6.19921  2931.10091   0.
    35.16618  2938.51604   0.
    16.36294  2929.87801   0.
    13.43632  2943.77014   0.
    42.64967  2935.50406   0.
    26.89596  2931.23775   0.
     1.59760  2936.73753   0.
    17.19200  2948.13905   0.
    -0.61497  2957.60981   0.
    26.49360  2937.36117   0.
     9.56799  2951.50953   0.
    17.55858  2943.77119   0.
    55.26825  2932.33039   0.
    22.03247  2936.46128   0.
    16.10828  2937.24515   0.
    22.48452  2941.40733   0.
    20.86327  2946.43955   0.
    29.71126  2937.35408   0.
    32.14062  2935.59882   0.
    45.26358  2935.44707   0.
    29.19256  2942.39482   0.
    25.22337  2944.48902   0.
    25.77440  2940.40763   0.
     5.12787  2951.33100   0.
     9.72036  2943.07255   0.
     0.63027  2944.64860   0.
     5.15669  2954.13690   0.
    33.80274  2940.56791   0.
     1.57076  2956.41210   0.
     9.31000  2947.97928   0.
     9.87726  2933.53233   0.
    53.60824  2932.85261   0.
    40.63972  2936.89193   0.
    13.47285  2946.23828   0.
    37.68088  2934.75035   0.
    46.32767  2931.88185   0.
    18.64740  2941.16071   0.
    13.09413  2950.32980   0.
    18.01744  2935.92389   0.
     0.55332  2948.73049   0.
     5.35766  2947.55011   0.
    42.44669  2933.52960   0.
    57.75733  2932.24094   0.
    23.68300  2931.83870   0.
    19.94397  2947.74183   0.
    61.81887  2931.15328   0.
[...]
POINT_DATA      1414
CELL_DATA      2568
SCALARS Resistivity(ohm.m) double 1
LOOKUP_TABLE default
          1188.31111          1666.35672          2337.06974          1149.86386           478.26844          2266.52251          1301.17326          1500.40433          1546.28521          2042.60478           831.11383          2017.19519           596.48389          2255.80122          2208.94498          1890.21190          1491.55454           482.70187           457.12676          2447.63859          1217.02003          1891.24343          1247.72678           596.87154          1768.63329           499.18067           254.88793          2208.73219          2125.17041          2310.09855           471.85925           511.65706          1583.77869           432.03002           379.84415          1677.48375           768.36682          1015.21732          1209.47053          1548.96339          1711.25065           728.37140           462.72887          2250.35552           338.00226           448.25570          2879.90573           888.38068           629.86869           961.23073          2590.13786          1755.30832          1082.64225          1485.59251          2278.69437           971.65375           368.75988          2268.56523           435.75367          1152.32521           500.40388          2060.97831           473.32908          1842.08866           263.37000          1461.71552          2078.44163          1976.17456           291.21122           746.43699           485.83704           823.31985          1962.46087           409.64690           315.66797          2907.04419          1412.65612           479.28147           316.43649          2719.23744          2604.67028          1450.46383           422.11340           450.82243          1966.73913           822.88419           341.01527          2004.02830           902.25857          1840.60780          1112.99908           364.26073          2284.85959           360.03230          1794.30469          1909.42381           536.18089          1268.56397          2106.85174          1063.87738          1499.76705           515.39123           635.96868           759.14693           952.66327          1586.91558           469.73474          1010.24559          2155.53419          1337.72486           397.56020          1143.14972          2477.00986          1753.53927          1929.80011          1246.71354          1067.95916          1434.52685           447.10484           322.37985          2374.20352          1372.70430          2945.47018           762.30865           524.76994          2006.85228          2353.19244          3177.35845          1793.18193          1424.00078          2016.30771          1132.79228          1197.89123          2211.86715           881.09678          2813.37040           388.77357          1561.93042          1064.13031          1288.93000          1527.49010           484.09525           613.47921          1344.85326          1564.02677           550.57680           438.23785          1426.24576          1855.04651           528.70584          2305.31149          1812.37778           993.46323           726.58695          2297.24016           282.28059          1609.00619           439.89896          2140.39864          1234.03021          1225.50624           485.45529          2247.35827           440.45121          2211.25072           513.37021          1440.88153          1814.05404          1807.83550          1627.87687           756.44176           812.84065           709.44675           272.69872           407.48062           976.10462           843.85040          3538.62486          2620.73595          1185.23141          2272.76127          1431.08487          1930.37111           761.20318           515.51247          1021.07263           907.38642           654.87479           915.41473          2421.47284          1190.47518          2361.28852           596.85680          2589.30828           269.72035           502.82478          2535.07268          2034.24078          1248.26011           416.01206           276.61724           861.58032          1753.55424          1369.17670          1796.16822          1095.22529          3866.94915          2296.56408           392.92945          2246.77320          1274.41608           591.47750           416.75186           344.57723           569.61976          1210.11530          2275.63634           489.48063          1265.43067           502.47435           910.88939          1350.62269          1161.86465           354.31482           639.98426           654.14389           367.81453           546.50443          1229.35567           328.86273          1088.34999          2040.95050          1375.32223          2941.76166          2386.09850          1649.03147          2416.70898          1447.33395          1407.51168          1332.73405          2531.67213           664.03886          1010.17493           415.21522          2414.61307           263.38365          1793.66830           450.05374           464.08414          2116.82128           252.84126          2020.04965          1697.62256           692.78105          1933.02482          1033.10040           649.08980           734.66924           715.02043          2875.16853           551.93204          2196.73484           497.19528           438.86640           434.51764          1620.50840           368.56709          2314.54608           947.61507          2329.36490          1040.17085          2095.80019          2354.79902          2209.01676           468.94652          1553.42547          2222.22428           478.45924           730.27960           673.26305           489.49230          1312.57065           277.97347           993.84845           968.03747          2345.61386           464.97978          2446.53539           621.70314           454.88285           971.40955           310.51332          2268.93229           668.76754          1864.66024          2316.75177          1428.92751           510.21502           449.81209           646.67708          1029.38058           430.89184          2505.68207          2480.18750           439.98402          1711.46991          1263.59849          1454.42245          1835.87014           378.06265           700.47588           569.94105           293.56443          2330.72434           822.31352           343.66789           453.53527          1183.46803          2736.41005           471.17237          3269.76200           391.56100           874.22327           428.58741           527.46250          1195.35302           438.41465          1314.72361          1090.20069          2805.23168          1697.47396          2151.34746           512.38363          1563.23543           347.38651           394.01420           587.12714           588.44503          3140.39830           549.67792          2095.16092           425.93537          2082.36534           488.61386           556.95909          1694.52149          1242.98669          1027.19930           440.98241          2147.78488           464.91362          2387.79637           803.00815           388.23782           453.55784          2012.33820           464.06619          1559.42295           318.17033           387.66007           867.03956          1420.53061           955.44146           527.74987          1291.38595           501.01615           372.83539          2378.46034          1732.82556          2606.72691           481.29037          1246.03294          1351.20021          1039.72621           294.24395          2595.53245           401.01221           490.90767           461.15488          1942.33336          1316.81210           450.51946          1666.76179          2364.31654           257.10758          1280.74130           549.48064          1380.71607           430.87087          1506.72046           717.84834           336.18018          1348.20871          1368.64635           425.20710           854.54097           575.86987          1358.77803          1623.91798          1075.92904           535.74211           633.31811          1330.33451          1353.80142          1311.25817           908.05730           512.61205           988.70245          2302.24181          1603.90825          1488.19578          2119.13836          1064.18782           605.48680          1139.16829          2519.65345           703.19417           802.06948           720.96019          1704.70770          1035.76573           378.49086          2159.19374          1433.35956          1303.01667           280.93689          1625.68052           548.49704          1334.63070           509.18006          1336.06224           497.01349           433.98379          1943.83372          1104.76341          1408.36961          1475.69597           655.31682          1783.67033          1308.14094          3518.48672           590.39468          1193.92897          2095.12391          1162.47081          1151.59822          1230.29542          1212.41543          4237.80986           886.14024          3270.34573          1525.61220          1499.68163          1227.46284          1678.45899           870.75464          2065.23821           962.59216          1386.73280           469.58386          1809.11053          1308.77177           920.01783          1349.61624          2157.25095           863.27003           912.39358          1225.40505          1709.55731          1622.30676           856.90403          1724.65682           935.46680           284.10388          1843.69010          3918.05341          1110.93535           424.38324          1516.37583           749.95191          1081.56527          1938.96068           497.50093           550.89074          2105.22560          2697.89667          1293.50903           367.87008           713.92807           817.01896          1267.32894          1192.34843          1106.05070          1414.78753           825.96502          1370.54470           789.11208          1127.40874          2481.25547          1703.77447           684.46808           329.76109           577.21075          1307.78739           803.76796          1264.85841          3683.42193          1268.91793           359.58936           468.21146          1307.74855          1245.19104           935.64423           404.54503          3167.46092          1312.54754           368.68639          3320.79643          2240.33336           460.01103          1393.63287          1248.89377          1129.32681          1241.66057          1137.26421           548.25637          1597.45448          1350.29528          1370.36922          1316.22064           708.45061          1729.05726           487.23187          1244.27589           584.32386           469.21781           735.54188          1664.43989          1168.30788           975.30345           483.09525           394.16544          1637.00558          1200.49190          4038.85736          4334.39866          3286.20310          2063.59306          1977.92528          2163.93553          3526.13717          4899.01781           623.00448          4617.39883           393.21272          1051.33747          1466.31027           650.98350          4038.92839          5246.17902          1250.65822           442.74650          2074.02691          2700.74079           794.28941           754.83386          1400.13097          4314.63550          1326.34409          2330.11907           969.99232           603.38889          1440.75224          1591.71652           443.50237          3278.93976           495.98145          1380.97391          5162.12963          3854.10617          1691.41490          5055.70128           278.17924           857.49340           471.57675          1853.69383          2727.67010          1762.01438          2967.87336          1863.62792          2687.54966           751.23511          1598.74566          1313.41138          1797.36131          9068.33573          3388.91396           976.46455          4765.49059          3900.21747           774.99480           649.07824          5163.16131          2908.30546          4274.29413          4984.95542          1479.34151           816.38626           631.08831           540.22651           760.33293          4315.78116          1660.40843           970.88780          1619.27651           311.68182          1036.71459          1741.60894          3544.62317          1038.84410           853.52292           723.37229           793.52690          1561.15263          1489.34892           856.37371          3056.48013          2808.53216          3204.63903          3170.85916          5711.14540          4185.42910          2409.72439           565.46450          4323.64911          1144.02420          1589.74513           653.88762          1387.85398           894.42029           368.51886          6290.06875          5084.01510          1473.22498          1623.77014          2780.91458          2144.06779          3052.34965          3042.50847           864.23848          1234.31984           601.99598           826.54589           425.15400           492.50810           775.69006           632.49635          2072.89156          4255.41127          3318.90131          1474.98499          2234.16356          1394.26626          1571.42115          8213.47014          5205.04502          1858.26017           434.39728           580.78998          5399.25461           615.42175          3836.31914          4514.44466          1009.10308          2393.57296           719.58087           942.49468          1023.28416          2334.57400          2366.73070          2632.71503           639.84445           519.63609          1142.76486           347.05340           622.83578           435.09368          3315.18661          5225.41889           454.40983          3110.24030           762.11400          2713.52191          1228.59726           665.57861           597.11138           679.52108           627.18315          2024.96613           695.46381          1395.55050           628.89063          2527.42956          1853.22725          3827.31411          2845.01818           626.51422           588.14938           316.53866          2939.95766           746.24360           771.07030          1301.40326          2727.77145           733.01244           826.23065           537.20185          1271.20266          1084.66220          1561.74665          1366.47911           614.70589           719.83817           699.94229          2714.86721          2040.83355          1139.54886          7733.78906          1010.97405           857.32231           927.33266          1483.11259          2452.49330          1529.87402          1502.79454          1467.25387          2757.44580           667.03598          6985.84394          1410.45500          2739.27592           799.14205          1150.00659          3794.31664          2974.52314           758.75398          1103.75124          3129.85677           471.48580           520.47606          1219.20044          2888.47223          5662.97621          1471.70269          7238.05051          1258.97192          1683.07432          1500.97505          1193.10651           464.26616           814.37330          2713.40745           719.16042          3954.56030           634.21186          3032.35458           776.57079           725.70014          1356.32693          2029.98401          2826.87688          4802.93645          2847.58747          1498.72200          1809.14551          1332.38597          5309.92977          7602.01156          2008.45895           950.38846          2908.75564           618.20655          1112.44308           878.42928          2465.56750          1135.17950           960.12802           564.82733           608.89239          3860.13217           984.36110           774.45762          6116.49435          3867.24251          2472.13249          1358.92582          7999.13202           835.15175          2320.71589          2803.68361          2118.81137          1092.21078          3018.58811          5377.89005          1729.32631           411.95805           718.55666           892.30980          1777.90729          1808.81255           652.14421           668.30617          6142.20360           791.47329          1160.98216          1776.30994          3720.05110          5088.84380           487.02208          1333.40798           798.17236          1085.67667          1860.47444           693.59467           843.00784          1458.45402           804.65880           606.16351           436.91803           770.89464          2899.89037           489.77623          2890.25977          1664.33769          2020.67784          1322.65466          1683.91199          1570.03867           440.21959          4211.30943          1490.21580          1968.85693          1885.93503          2154.04302          5320.70304           983.07625          5336.81305           569.90270           687.19633          1464.83035          1155.07837          7715.49752          2655.04395           871.25823          1633.86792          3950.53269          3201.60657           583.61973          4933.10336          1442.31679          2706.41387          1077.46055          3535.87294          3632.07746           466.95425          3373.82152          3984.99480          2443.83879          5511.13197           824.01587           757.71543          1145.24049          2378.09056           446.70680          8112.51663          4012.28956           599.92795          1574.82550          1549.40628          2147.42653           766.37668          1122.98422         13401.92907           681.23486          2196.43686          1301.91999           478.98012           779.11074          2448.56053          5046.02887          6016.78442          1473.63037          2364.85548          2561.70037          4651.67939           705.84808          1390.30911          2091.83325          1755.55643          5220.23242           620.22883          1140.70724          2722.31026           769.60053          3727.92975          2129.00221          6850.34513          2473.13972          1118.17797          1107.72536           603.24447          5262.82915          7378.18845          2016.09592           292.65821           410.75845           775.54747           747.41631          6506.96506          1380.52509          2059.81451          3014.10233          2582.72714          5487.77236          5775.48479           373.90926           620.00128           723.77956          1212.98072           643.47563          4256.52814          3800.27930          1352.39641           690.17593           991.01453          2274.51538          3670.68574          2199.26820          2002.27013           848.39380          3950.05413          7127.91392           462.39597           675.43325          1783.00200          7561.87492          2015.58580          2915.13971          4854.37818           738.77399          1763.79593          4661.08252           527.15506          1452.45434          1008.90075          5283.41630           904.46739          1753.80042          2736.73241          5800.85682          4718.50128          6084.34495          4463.67457          4062.94730          1905.32768           865.93237          3391.91619          9140.16731           637.94961          2445.34384          2434.31195           274.15853          2430.71950          3177.10835          2454.61604           441.20197          4308.73207           804.28389          3154.78902          4167.21125          1749.99492           796.07081          2942.44780          3445.22014          5243.69504          6356.99499          5446.08600           621.16430           667.61315          1230.71914          4734.88471          1023.11166          2635.22547           860.08851           617.300