# vtk DataFile Version 3.0
Output from R2
ASCII
DATASET UNSTRUCTURED_GRID
POINTS       1414 double
     0.00000  2968.10000   0.
     1.54000  2966.60000   0.
     3.08000  2964.90000   0.
     4.61000  2964.10000   0.
     6.15000  2963.30000   0.
     7.69000  2962.60000   0.
     9.23000  2961.50000   0.
    10.76000  2960.70000   0.
    12.30000  2960.00000   0.
    13.84000  2959.30000   0.
    15.38000  2958.70000   0.
    16.91000  2958.10000   0.
    18.45000  2957.30000   0.
    19.99000  2956.60000   0.
    21.52000  2955.80000   0.
    23.06000  2955.00000   0.
    24.60000  2954.30000   0.
    26.14000  2953.50000   0.
    27.68000  2952.80000   0.
    29.21000  2951.90000   0.
    30.75000  2951.10000   0.
    32.29000  2950.20000   0.
    33.83000  2949.50000   0.
    35.36000  2948.70000   0.
    36.90000  2948.10000   0.
    38.44000  2947.30000   0.
    39.98000  2946.70000   0.
    41.51000  2946.10000   0.
    43.05000  2945.50000   0.
    44.59000  2945.10000   0.
    46.13000  2944.50000   0.
    47.66000  2944.10000   0.
    49.20000  2943.60000   0.
    50.74000  2943.40000   0.
    52.28000  2943.00000   0.
    53.81000  2942.50000   0.
    55.35000  2942.10000   0.
    56.89000  2941.60000   0.
    58.43000  2941.00000   0.
    59.96000  2940.60000   0.
    61.50000  2940.10000   0.
    63.04000  2939.50000   0.
    64.58000  2939.10000   0.
    66.11000  2939.20000   0.
    67.65000  2939.20000   0.
    69.19000  2939.10000   0.
    70.73000  2938.90000   0.
    72.26000  2938.60000   0.
    73.80000  2938.30000   0.
    75.34000  2938.50000   0.
    76.88000  2938.70000   0.
    78.41000  2938.60000   0.
    79.95000  2938.80000   0.
    81.49000  2938.90000   0.
    83.03000  2939.10000   0.
    84.56000  2939.10000   0.
     3.42000  2957.55000   0.
     8.97000  2954.51000   0.
    14.52000  2951.86000   0.
    20.07000  2949.38000   0.
    25.63000  2946.59000   0.
    31.18000  2943.67000   0.
    36.73000  2940.99000   0.
    42.28000  2938.62000   0.
    47.83000  2936.87000   0.
    53.39000  2935.46000   0.
    58.94000  2933.69000   0.
    64.49000  2931.95000   0.
    70.04000  2931.81000   0.
    75.60000  2931.36000   0.
    81.15000  2931.70000   0.
     0.51333  2967.60000   0.
     1.02667  2967.10000   0.
     2.05333  2966.03333   0.
     2.56667  2965.46667   0.
     3.59000  2964.63333   0.
     4.10000  2964.36667   0.
     5.12333  2963.83333   0.
     5.63667  2963.56667   0.
     6.66333  2963.06667   0.
     7.17667  2962.83333   0.
     8.20333  2962.23333   0.
     8.71667  2961.86667   0.
     9.74000  2961.23333   0.
    10.25000  2960.96667   0.
    11.27333  2960.46667   0.
    11.78667  2960.23333   0.
    12.81333  2959.76667   0.
    13.32667  2959.53333   0.
    14.35333  2959.10000   0.
    14.86667  2958.90000   0.
    15.89000  2958.50000   0.
    16.40000  2958.30000   0.
    17.42333  2957.83333   0.
    17.93667  2957.56667   0.
    18.96333  2957.06667   0.
    19.47667  2956.83333   0.
    20.50000  2956.33333   0.
    21.01000  2956.06667   0.
    22.03333  2955.53333   0.
    22.54667  2955.26667   0.
    23.57333  2954.76667   0.
    24.08667  2954.53333   0.
    25.11333  2954.03333   0.
    25.62667  2953.76667   0.
    26.65333  2953.26667   0.
    27.16667  2953.03333   0.
    28.19000  2952.50000   0.
    28.70000  2952.20000   0.
    29.72333  2951.63333   0.
    30.23667  2951.36667   0.
    31.26333  2950.80000   0.
    31.77667  2950.50000   0.
    32.80333  2949.96667   0.
    33.31667  2949.73333   0.
    34.34000  2949.23333   0.
    34.85000  2948.96667   0.
    35.87333  2948.50000   0.
    36.38667  2948.30000   0.
    37.41333  2947.83333   0.
    37.92667  2947.56667   0.
    38.95333  2947.10000   0.
    39.46667  2946.90000   0.
    40.49000  2946.50000   0.
    41.00000  2946.30000   0.
    42.02333  2945.90000   0.
    42.53667  2945.70000   0.
    43.56333  2945.36667   0.
    44.07667  2945.23333   0.
    45.10333  2944.90000   0.
    45.61667  2944.70000   0.
    46.64000  2944.36667   0.
    47.15000  2944.23333   0.
    48.17333  2943.93333   0.
    48.68667  2943.76667   0.
    49.71333  2943.53333   0.
    50.22667  2943.46667   0.
    51.25333  2943.26667   0.
    51.76667  2943.13333   0.
    52.79000  2942.83333   0.
    53.30000  2942.66667   0.
    54.32333  2942.36667   0.
    54.83667  2942.23333   0.
    55.86333  2941.93333   0.
    56.37667  2941.76667   0.
    57.40333  2941.40000   0.
    57.91667  2941.20000   0.
    58.94000  2940.86667   0.
    59.45000  2940.73333   0.
    60.47333  2940.43333   0.
    60.98667  2940.26667   0.
    62.01333  2939.90000   0.
    62.52667  2939.70000   0.
    63.55333  2939.36667   0.
    64.06667  2939.23333   0.
    65.34500  2939.15000   0.
    66.88000  2939.20000   0.
    68.42000  2939.15000   0.
    69.70333  2939.03333   0.
    70.21667  2938.96667   0.
    71.24000  2938.80000   0.
    71.75000  2938.70000   0.
    72.77333  2938.50000   0.
    73.28667  2938.40000   0.
    74.31333  2938.36667   0.
    74.82667  2938.43333   0.
    75.85333  2938.56667   0.
    76.36667  2938.63333   0.
    77.64500  2938.65000   0.
    78.92333  2938.66667   0.
    79.43667  2938.73333   0.
    80.72000  2938.85000   0.
    82.00333  2938.96667   0.
    82.51667  2939.03333   0.
    83.79500  2939.10000   0.
     0.08400  2959.57200   0.
     1.19600  2958.89800   0.
     2.30800  2958.22400   0.
     4.53000  2956.94200   0.
     5.64000  2956.33400   0.
     6.75000  2955.72600   0.
     7.86000  2955.11800   0.
    10.35750  2953.84750   0.
    11.74500  2953.18500   0.
    13.13250  2952.52250   0.
    15.90750  2951.24000   0.
    17.29500  2950.62000   0.
    18.68250  2950.00000   0.
    21.18200  2948.82200   0.
    22.29400  2948.26400   0.
    23.40600  2947.70600   0.
    24.51800  2947.14800   0.
    26.74000  2946.00600   0.
    27.85000  2945.42200   0.
    28.96000  2944.83800   0.
    30.07000  2944.25400   0.
    32.56750  2943.00000   0.
    33.95500  2942.33000   0.
    35.34250  2941.66000   0.
    38.11750  2940.39750   0.
    39.50500  2939.80500   0.
    40.89250  2939.21250   0.
    43.66750  2938.18250   0.
    45.05500  2937.74500   0.
    46.44250  2937.30750   0.
    49.22000  2936.51750   0.
    50.61000  2936.16500   0.
    52.00000  2935.81250   0.
    54.77750  2935.01750   0.
    56.16500  2934.57500   0.
    57.55250  2934.13250   0.
    60.32750  2933.25500   0.
    61.71500  2932.82000   0.
    63.10250  2932.38500   0.
    65.87750  2931.91500   0.
    67.26500  2931.88000   0.
    68.65250  2931.84500   0.
    71.43000  2931.69750   0.
    72.82000  2931.58500   0.
    74.21000  2931.47250   0.
    76.98750  2931.44500   0.
    78.37500  2931.53000   0.
    79.76250  2931.61500   0.
    82.53750  2931.75500   0.
    83.92500  2931.81000   0.
     6.60134  2937.05984   0.
    20.80435  2932.52560   0.
     3.78758  2946.36592   0.
    15.48523  2940.98228   0.
    29.30091  2934.50364   0.
    23.90594  2939.46561   0.
    40.87322  2931.62711   0.
     1.03219  2951.87344   0.
    10.83406  2946.32292   0.
    20.42668  2943.42459   0.
    48.80952  2930.83467   0.
    35.50309  2935.49258   0.
     7.54365  2949.73854   0.
    28.57967  2939.84283   0.
    15.90963  2945.83181   0.
    44.30452  2933.27820   0.
    -0.12722  2955.42655   0.
    24.47411  2943.04615   0.
     4.45051  2952.86019   0.
    40.01017  2935.22543   0.
    52.75593  2931.58993   0.
    13.75183  2934.27842   0.
    32.31862  2938.44653   0.
     0.40990  2931.04902   0.
    19.20708  2946.27332   0.
    57.19103  2930.55709   0.
    -0.97178  2947.27328   0.
    19.39705  2939.49643   0.
    11.08068  2950.12444   0.
    32.86215  2930.47012   0.
     7.41320  2941.82707   0.
    13.76382  2948.77946   0.
    27.17579  2942.79365   0.
     7.27112  2952.68663   0.
     2.71547  2954.94653   0.
    22.91159  2945.17994   0.
     2.00816  2941.86911   0.
    24.73355  2934.79062   0.
    47.86753  2934.00196   0.
    50.62083  2933.29089   0.
    60.15732  2930.28185   0.
    37.65425  2937.53830   0.
    44.64836  2929.77041   0.
    10.93416  2939.02064   0.
     4.26476  2949.76242   0.
    36.78915  2931.78219   0.
     7.36345  2946.13476   0.
    30.92470  2941.06806   0.
     6.19921  2931.10091   0.
    35.16618  2938.51604   0.
    16.36294  2929.87801   0.
    13.43632  2943.77014   0.
    42.64967  2935.50406   0.
    26.89596  2931.23775   0.
     1.59760  2936.73753   0.
    17.19200  2948.13905   0.
    -0.61497  2957.60981   0.
    26.49360  2937.36117   0.
     9.56799  2951.50953   0.
    17.55858  2943.77119   0.
    55.26825  2932.33039   0.
    22.03247  2936.46128   0.
    16.10828  2937.24515   0.
    22.48452  2941.40733   0.
    20.86327  2946.43955   0.
    29.71126  2937.35408   0.
    32.14062  2935.59882   0.
    45.26358  2935.44707   0.
    29.19256  2942.39482   0.
    25.22337  2944.48902   0.
    25.77440  2940.40763   0.
     5.12787  2951.33100   0.
     9.72036  2943.07255   0.
     0.63027  2944.64860   0.
     5.15669  2954.13690   0.
    33.80274  2940.56791   0.
     1.57076  2956.41210   0.
     9.31000  2947.97928   0.
     9.87726  2933.53233   0.
    53.60824  2932.85261   0.
    40.63972  2936.89193   0.
    13.47285  2946.23828   0.
    37.68088  2934.75035   0.
    46.32767  2931.88185   0.
    18.64740  2941.16071   0.
    13.09413  2950.32980   0.
    18.01744  2935.92389   0.
     0.55332  2948.73049   0.
     5.35766  2947.55011   0.
    42.44669  2933.52960   0.
    57.75733  2932.24094   0.
    23.68300  2931.83870   0.
    19.94397  2947.74183   0.
    61.81887  2931.15328   0.
[...]
POINT_DATA      1414
CELL_DATA      2568
SCALARS Resistivity(ohm.m) double 1
LOOKUP_TABLE default
          1316.47994          1641.91242          2163.05278          1276.28150           447.27361          2096.96218          1346.61623          1590.15422          1482.69352          1957.82755           833.65119          1963.03958           572.31871          2203.45484          2157.98618          1904.32278          1468.97265           441.10753           468.41360          2337.87711          1239.77482          1899.70540          1307.48016           583.84387          1708.46190           526.48699           238.78608          2058.15359          2069.87395          2122.17084           476.90734           531.16762          1568.47996           431.26600           351.82503          1699.37331           709.95435          1129.80870          1269.37731          1577.17121          1638.97030           700.76337           501.52419          2211.26332           345.29698           447.05987          2929.46018           917.87203           602.66130           924.73129          2570.58199          1693.04312          1178.63302          1449.69815          2178.81184          1081.70261           365.18280          2083.48048           437.40280          1276.37141           470.73749          1990.39227           424.01068          1878.34055           253.49658          1405.53120          1968.94672          1904.50320           281.61928           827.06094           510.31880           771.46967          1896.06347           414.31741           273.95677          2961.14169          1510.75651           448.45999           275.89352          2742.60296          2599.51796          1559.14437           435.84615           460.13376          1894.29656           915.35478           339.09540          1938.37274           861.14702          1810.15843          1247.84676           380.83960          2101.14238           313.90034          1785.56861          1840.17302           510.85233          1417.79796          2045.76341          1191.11823          1544.70922           497.69972           654.18720           745.05562           990.19637          1527.18936           442.99765          1086.11396          2087.07202          1491.17277           344.43765          1177.97723          2470.20067          1766.32820          1861.79177          1231.64591          1083.90630          1429.74955           484.20166           313.07911          2234.34081          1457.03278          3003.75853           790.20351           501.81441          1914.06622          2327.71677          3258.66602          1830.24472          1496.67416          1917.20561          1248.90207          1229.07707          2143.53605           921.63440          2853.25354           338.23916          1513.04219          1193.01654          1264.56332          1532.70720           464.90664           635.17799          1415.60961          1537.27343           544.97600           441.43787          1472.76818          1786.32096           556.31038          2132.76236          1745.87138          1075.51241           683.11771          2191.77003           246.18490          1714.97877           430.21149          2088.21913          1255.69528          1364.12168           476.79859          2201.77587           420.09350          2047.41878           484.15729          1490.13775          1838.16305          1734.60595          1585.87654           724.59713           839.78977           746.62203           256.84311           429.10276           992.98672           938.52807          3657.04635          2632.94457          1326.95413          2141.62570          1567.18191          1851.65817           803.34293           490.22365          1144.71494          1013.87253           698.32330           918.57951          2401.18161          1236.68547          2324.43601           652.83635          2592.34523           259.95236           543.10282          2522.14322          1934.84261          1366.23171           447.51874           240.67197           828.05541          1790.92390          1368.07244          1837.08144          1223.96015          4013.23241          2162.55358           421.49258          2088.30424          1318.39483           590.30617           443.31166           328.22366           583.70378          1326.38365          2238.16386           506.86332          1396.19924           515.63347           885.60539          1499.16443          1301.74596           327.66782           628.54000           720.60115           324.94541           596.19799          1212.17995           340.51217          1140.28178          1997.32753          1439.98665          2994.24057          2298.72313          1755.51517          2351.11066          1594.41387          1550.80226          1394.82166          2529.69452           642.54351          1131.45727           432.89283          2377.73353           233.44932          1759.90923           430.51143           415.67225          1994.56590           227.08034          1982.83471          1785.25040           758.31711          1852.66804          1136.20682           621.83119           803.19064           720.62088          2912.68170           526.80574          2045.02653           466.82109           470.86527           434.79394          1733.54881           355.89945          2131.68737          1059.78246          2183.94488          1085.17100          2017.32562          2324.98054          2075.16101           479.20559          1574.37934          2091.17667           465.77780           679.25021           638.31912           464.54610          1302.65803           250.94624          1092.26356          1009.71461          2169.86274           500.50511          2359.98848           600.03834           416.44062           975.19279           276.05617          2194.39621           736.77353          1795.85954          2169.38453          1552.84769           512.91700           476.76991           700.13836          1018.84738           439.65195          2456.67845          2474.46518           432.74722          1647.11699          1290.16851          1464.14707          1765.99628           333.16042           773.15984           543.34500           291.43663          2160.00579           803.50583           309.43537           426.09343          1268.63319          2753.78022           490.31113          3363.41550           411.73396           893.64147           388.36965           558.43263          1268.54446           429.18297          1293.62938          1211.78078          2846.66374          1682.25624          2012.06925           556.91983          1684.62295           364.12734           417.50749           634.22233           574.90625          3220.59514           572.03885          2007.15632           375.71399          1965.02976           479.56956           562.80849          1635.35106          1391.37551          1086.34982           430.41132          2031.85495           422.46351          2366.22562           885.63054           340.37446           481.42954          1926.26209           455.30328          1663.73846           324.69795           413.89698           849.50414          1385.39271          1004.20145           569.05418          1306.26321           531.41464           332.37143          2226.26458          1795.44421          2610.91432           453.15628          1253.28349          1380.64173          1063.67070           296.27669          2606.05292           421.34811           492.10623           447.78587          1865.88053          1361.98463           397.73730          1600.95482          2304.45458           227.32337          1284.65632           526.27301          1530.54619           452.58184          1646.15809           791.68182           351.75820          1335.82240          1408.14530           381.68192           852.71613           624.57334          1462.23573          1573.64999          1158.76552           507.43199           693.71309          1418.97714          1310.69150          1415.74422          1001.26305           541.86342          1106.73488          2136.79730          1661.36171          1596.57361          2043.14746          1130.44497           586.93988          1155.97680          2461.27421           660.27005           809.08729           709.08982          1764.77235          1099.50273           403.33847          2059.24870          1581.12188          1435.33352           277.29864          1698.66982           520.86958          1348.86912           493.91812          1454.74688           471.56447           387.75845          1918.26402          1229.56845          1436.99428          1567.85571           627.90087          1716.35615          1392.34264          3628.76450           590.33198          1294.04905          2046.00500          1257.64908          1284.43927          1227.00433          1300.50845          4422.47846           980.85974          3361.66530          1591.36173          1621.59477          1298.01700          1755.24055           933.07132          2004.56670          1077.55081          1540.30468           445.63455          1753.08728          1384.30969          1026.42653          1477.39920          2012.59540           935.91212           925.88542          1335.22014          1752.35513          1697.64833           801.28849          1681.55967          1011.54411           282.37438          1787.46845          4073.87754          1198.04983           439.05110          1655.68481           755.70903          1075.25113          1924.36270           529.72513           540.06643          1981.99183          2714.76883          1421.11499           320.09027           666.00354           855.97175          1342.53955          1302.75831          1221.88635          1371.32795           907.04953          1332.07334           854.03303          1261.62583          2464.85349          1655.20870           653.76792           288.26950           550.81306          1451.59121           863.49905          1409.97561          3814.03974          1373.41869           381.06443           492.34365          1446.66280          1384.48565          1001.38622           431.23755          3247.55723          1276.04147           390.49164          3412.77806          2145.94877           437.97087          1508.87680          1338.48118          1261.28441          1372.58561          1273.75247           598.69161          1720.21162          1321.86354          1344.96138          1425.35905           763.79877          1808.26581           442.98964          1334.80429           637.88186           441.61495           788.23674          1692.39962          1307.73602          1092.52317           446.50421           415.06960          1648.71025          1337.56186          3996.82369          4227.43060          3277.82384          2115.34088          2040.97029          2224.26691          3533.89942          4769.29381           639.28437          4554.64667           411.24181          1046.69240          1519.07683           714.44125          3777.65733          5733.34317          1245.09333           442.92717          2246.73076          2724.53230           768.18219           748.90593          1352.19885          4342.96772          1401.41130          2035.91549           964.57083           673.96930          1421.66359          1572.27515           499.30711          3354.29415           468.55794          1425.58252          5193.81806          3839.64342          1696.98955          4777.31617           246.74665           791.67920           451.70513          1988.89653          2745.00060          1774.79096          3214.12849          1995.29010          2719.23158           716.70861          1713.34311          1317.35440          1800.03966          9390.82037          3338.28362           916.33762          4828.55070          4185.63513           791.62711           631.68766          5464.90703          2990.84165          4224.17785          4793.45484          1488.27273           846.91075           612.62058           576.57652           764.05252          4333.88481          1663.34122           975.50645          1600.85215           274.16354          1049.57780          1706.15584          3529.52033          1101.05234           849.65976           691.21705           772.78623          1621.56881          1540.30178           903.34486          3059.24649          2748.06820          3283.82279          3145.64557          5600.28564          4358.74956          2347.22522           562.14982          3797.53897          1126.94629          1580.58254           639.53210          1346.30587           877.40897           383.37482          6186.45155          5206.63064          1434.83182          1710.63850          2816.23502          2341.45633          2951.81647          2748.12417           883.46251          1370.91781           576.74321           805.96648           436.96329           463.60014           798.29526           658.89644          2223.73059          4379.00976          3257.33981          1465.21427          2261.14895          1345.34961          1629.16862          8619.01872          5463.82400          1897.89009           446.93796           565.85790          5993.09255           598.14324          3628.23994          4266.46890          1013.40518          2318.43753           725.39395           934.36190          1017.26299          2396.09348          2423.36404          2627.50205           645.18810           528.02020          1159.82612           334.67552           655.22492           447.77782          3325.80891          5246.20528           509.17149          3203.07076           768.46689          2762.05214          1154.29823           651.76225           574.41717           654.03822           642.02847          2096.03578           680.06755          1433.00166           606.99543          2514.26232          1820.95884          4168.10330          2737.90453           630.34610           541.01401           289.50291          2885.99552           785.67549           794.41729          1371.76487          2724.30084           723.19178           819.22863           573.20128          1356.56167          1109.70309          1709.42218          1357.34660           613.79575           708.93387           640.34767          2735.06860          1882.20266          1200.20077          8037.78364          1001.19079           973.11079           945.79452          1668.90465          2636.56033          1533.89669          1404.96120          1611.47979          2825.09752           671.38516          6497.97574          1543.93673          2764.05926           878.28276          1181.08623          3990.36291          2901.99029           742.86336          1182.78709          3137.32842           506.42568           501.84884          1200.65880          2775.70629          5860.36363          1425.97698          7602.44172          1411.07674          1736.41962          1470.64850          1133.52907           488.53692           807.27469          2724.66376           671.77489          3780.32686           651.56319          3216.02624           806.53283           706.28741          1450.92140          1919.33824          2845.36501          4751.57947          2909.16614          1373.81347          1829.18329          1351.40679          5144.99189          8037.04254          1978.18677           936.60339          2948.08965           625.26411          1115.75042           894.54827          2575.18538          1125.87030           985.36196           538.39014           604.43370          3712.00908          1106.69537           777.86381          5874.35622          3727.25038          2146.33700          1397.34391          8281.48601           865.81363          2590.89250          2877.57366          2150.94562          1248.62548          3080.46272          5613.45252          1707.76724           415.93962           662.14521           881.48132          2025.63009          1828.15413           681.74129           631.81387          5921.49956           770.19744          1230.78392          1699.49627          3628.45542          5075.64897           512.38092          1285.96895           804.27853          1044.29798          2059.78405           696.16529           869.28330          1503.78442           820.14799           640.51129           450.70136           840.72554          2950.50199           470.91239          2940.77478          1623.18068          2046.22996          1303.71230          1784.63460          1536.30850           450.32196          4605.90392          1545.45969          1970.28157          1875.95278          2197.36333          5282.74665           969.59208          5370.02744           537.78257           668.43833          1416.43919          1123.06817          8131.87125          2648.93741           924.39506          1645.69543          3886.80248          3199.30966           561.77406          4806.23871          1559.59072          2556.71974          1098.68401          3341.29302          3549.77977           440.24373          3229.87191          4059.95244          2389.28734          5367.88808           822.59012           777.71705          1114.25805          2246.45139           491.49968          8202.90930          4054.61727           579.66946          1656.82051          1599.76579          2205.36973           751.10495          1135.88570         14435.85485           670.31058          2204.87300          1313.18849           504.58330           761.67141          2467.33147          4972.06008          6179.40457          1439.13063          2261.20162          2543.18397          4863.76512           680.84887          1403.36952          2186.08578          1831.11979          4870.44617           599.28487          1121.34813          2711.10885           776.11403          3580.00886          2327.61038          7022.91322          2891.79511          1258.27674          1119.25965           596.41991          5046.98351          7655.27802          2227.77794           258.33318           417.91002           808.05079           746.14099          6856.00884          1280.56748          1984.90604          3009.21849          2568.81989          5645.76246          5877.72897           390.21299           581.84576           724.10658          1214.74667           642.03263          4034.54829          3697.78208          1516.53885           701.81782          1018.85799          2315.28246          3693.00460          2268.64890          2057.78808           942.76081          3608.89245          7121.41684           496.41300           650.88443          1762.15626          7591.80700          2193.20735          2771.63075          4647.15642           767.08987          1878.64420          4545.39451           531.97677          1456.63989          1021.73357          5510.91287           953.97655          1730.35384          2718.07532          5714.02072          5169.08709          6289.59455          4462.29714          3921.40765          1688.56209           836.17428          3083.35100          9290.56817           684.22117          2437.48811          2563.66976           257.36013          2325.29635          3389.22018          2585.23112           416.95062          4342.74764           813.74369          3144.91253          4309.54203          1712.02410           818.47777          2877.26632          3393.98386          5040.45187          6721.98117          5581.88643           601.46999           669.99729          1343.46608          4577.71392          1081.32761          2606.12749           882.67048           604.023