# vtk DataFile Version 3.0
Output from R2
ASCII
DATASET UNSTRUCTURED_GRID
POINTS       1414 double
     0.00000  2968.10000   0.
     1.54000  2966.60000   0.
     3.08000  2964.90000   0.
     4.61000  2964.10000   0.
     6.15000  2963.30000   0.
     7.69000  2962.60000   0.
     9.23000  2961.50000   0.
    10.76000  2960.70000   0.
    12.30000  2960.00000   0.
    13.84000  2959.30000   0.
    15.38000  2958.70000   0.
    16.91000  2958.10000   0.
    18.45000  2957.30000   0.
    19.99000  2956.60000   0.
    21.52000  2955.80000   0.
    23.06000  2955.00000   0.
    24.60000  2954.30000   0.
    26.14000  2953.50000   0.
    27.68000  2952.80000   0.
    29.21000  2951.90000   0.
    30.75000  2951.10000   0.
    32.29000  2950.20000   0.
    33.83000  2949.50000   0.
    35.36000  2948.70000   0.
    36.90000  2948.10000   0.
    38.44000  2947.30000   0.
    39.98000  2946.70000   0.
    41.51000  2946.10000   0.
    43.05000  2945.50000   0.
    44.59000  2945.10000   0.
    46.13000  2944.50000   0.
    47.66000  2944.10000   0.
    49.20000  2943.60000   0.
    50.74000  2943.40000   0.
    52.28000  2943.00000   0.
    53.81000  2942.50000   0.
    55.35000  2942.10000   0.
    56.89000  2941.60000   0.
    58.43000  2941.00000   0.
    59.96000  2940.60000   0.
    61.50000  2940.10000   0.
    63.04000  2939.50000   0.
    64.58000  2939.10000   0.
    66.11000  2939.20000   0.
    67.65000  2939.20000   0.
    69.19000  2939.10000   0.
    70.73000  2938.90000   0.
    72.26000  2938.60000   0.
    73.80000  2938.30000   0.
    75.34000  2938.50000   0.
    76.88000  2938.70000   0.
    78.41000  2938.60000   0.
    79.95000  2938.80000   0.
    81.49000  2938.90000   0.
    83.03000  2939.10000   0.
    84.56000  2939.10000   0.
     3.42000  2957.55000   0.
     8.97000  2954.51000   0.
    14.52000  2951.86000   0.
    20.07000  2949.38000   0.
    25.63000  2946.59000   0.
    31.18000  2943.67000   0.
    36.73000  2940.99000   0.
    42.28000  2938.62000   0.
    47.83000  2936.87000   0.
    53.39000  2935.46000   0.
    58.94000  2933.69000   0.
    64.49000  2931.95000   0.
    70.04000  2931.81000   0.
    75.60000  2931.36000   0.
    81.15000  2931.70000   0.
     0.51333  2967.60000   0.
     1.02667  2967.10000   0.
     2.05333  2966.03333   0.
     2.56667  2965.46667   0.
     3.59000  2964.63333   0.
     4.10000  2964.36667   0.
     5.12333  2963.83333   0.
     5.63667  2963.56667   0.
     6.66333  2963.06667   0.
     7.17667  2962.83333   0.
     8.20333  2962.23333   0.
     8.71667  2961.86667   0.
     9.74000  2961.23333   0.
    10.25000  2960.96667   0.
    11.27333  2960.46667   0.
    11.78667  2960.23333   0.
    12.81333  2959.76667   0.
    13.32667  2959.53333   0.
    14.35333  2959.10000   0.
    14.86667  2958.90000   0.
    15.89000  2958.50000   0.
    16.40000  2958.30000   0.
    17.42333  2957.83333   0.
    17.93667  2957.56667   0.
    18.96333  2957.06667   0.
    19.47667  2956.83333   0.
    20.50000  2956.33333   0.
    21.01000  2956.06667   0.
    22.03333  2955.53333   0.
    22.54667  2955.26667   0.
    23.57333  2954.76667   0.
    24.08667  2954.53333   0.
    25.11333  2954.03333   0.
    25.62667  2953.76667   0.
    26.65333  2953.26667   0.
    27.16667  2953.03333   0.
    28.19000  2952.50000   0.
    28.70000  2952.20000   0.
    29.72333  2951.63333   0.
    30.23667  2951.36667   0.
    31.26333  2950.80000   0.
    31.77667  2950.50000   0.
    32.80333  2949.96667   0.
    33.31667  2949.73333   0.
    34.34000  2949.23333   0.
    34.85000  2948.96667   0.
    35.87333  2948.50000   0.
    36.38667  2948.30000   0.
    37.41333  2947.83333   0.
    37.92667  2947.56667   0.
    38.95333  2947.10000   0.
    39.46667  2946.90000   0.
    40.49000  2946.50000   0.
    41.00000  2946.30000   0.
    42.02333  2945.90000   0.
    42.53667  2945.70000   0.
    43.56333  2945.36667   0.
    44.07667  2945.23333   0.
    45.10333  2944.90000   0.
    45.61667  2944.70000   0.
    46.64000  2944.36667   0.
    47.15000  2944.23333   0.
    48.17333  2943.93333   0.
    48.68667  2943.76667   0.
    49.71333  2943.53333   0.
    50.22667  2943.46667   0.
    51.25333  2943.26667   0.
    51.76667  2943.13333   0.
    52.79000  2942.83333   0.
    53.30000  2942.66667   0.
    54.32333  2942.36667   0.
    54.83667  2942.23333   0.
    55.86333  2941.93333   0.
    56.37667  2941.76667   0.
    57.40333  2941.40000   0.
    57.91667  2941.20000   0.
    58.94000  2940.86667   0.
    59.45000  2940.73333   0.
    60.47333  2940.43333   0.
    60.98667  2940.26667   0.
    62.01333  2939.90000   0.
    62.52667  2939.70000   0.
    63.55333  2939.36667   0.
    64.06667  2939.23333   0.
    65.34500  2939.15000   0.
    66.88000  2939.20000   0.
    68.42000  2939.15000   0.
    69.70333  2939.03333   0.
    70.21667  2938.96667   0.
    71.24000  2938.80000   0.
    71.75000  2938.70000   0.
    72.77333  2938.50000   0.
    73.28667  2938.40000   0.
    74.31333  2938.36667   0.
    74.82667  2938.43333   0.
    75.85333  2938.56667   0.
    76.36667  2938.63333   0.
    77.64500  2938.65000   0.
    78.92333  2938.66667   0.
    79.43667  2938.73333   0.
    80.72000  2938.85000   0.
    82.00333  2938.96667   0.
    82.51667  2939.03333   0.
    83.79500  2939.10000   0.
     0.08400  2959.57200   0.
     1.19600  2958.89800   0.
     2.30800  2958.22400   0.
     4.53000  2956.94200   0.
     5.64000  2956.33400   0.
     6.75000  2955.72600   0.
     7.86000  2955.11800   0.
    10.35750  2953.84750   0.
    11.74500  2953.18500   0.
    13.13250  2952.52250   0.
    15.90750  2951.24000   0.
    17.29500  2950.62000   0.
    18.68250  2950.00000   0.
    21.18200  2948.82200   0.
    22.29400  2948.26400   0.
    23.40600  2947.70600   0.
    24.51800  2947.14800   0.
    26.74000  2946.00600   0.
    27.85000  2945.42200   0.
    28.96000  2944.83800   0.
    30.07000  2944.25400   0.
    32.56750  2943.00000   0.
    33.95500  2942.33000   0.
    35.34250  2941.66000   0.
    38.11750  2940.39750   0.
    39.50500  2939.80500   0.
    40.89250  2939.21250   0.
    43.66750  2938.18250   0.
    45.05500  2937.74500   0.
    46.44250  2937.30750   0.
    49.22000  2936.51750   0.
    50.61000  2936.16500   0.
    52.00000  2935.81250   0.
    54.77750  2935.01750   0.
    56.16500  2934.57500   0.
    57.55250  2934.13250   0.
    60.32750  2933.25500   0.
    61.71500  2932.82000   0.
    63.10250  2932.38500   0.
    65.87750  2931.91500   0.
    67.26500  2931.88000   0.
    68.65250  2931.84500   0.
    71.43000  2931.69750   0.
    72.82000  2931.58500   0.
    74.21000  2931.47250   0.
    76.98750  2931.44500   0.
    78.37500  2931.53000   0.
    79.76250  2931.61500   0.
    82.53750  2931.75500   0.
    83.92500  2931.81000   0.
     6.60134  2937.05984   0.
    20.80435  2932.52560   0.
     3.78758  2946.36592   0.
    15.48523  2940.98228   0.
    29.30091  2934.50364   0.
    23.90594  2939.46561   0.
    40.87322  2931.62711   0.
     1.03219  2951.87344   0.
    10.83406  2946.32292   0.
    20.42668  2943.42459   0.
    48.80952  2930.83467   0.
    35.50309  2935.49258   0.
     7.54365  2949.73854   0.
    28.57967  2939.84283   0.
    15.90963  2945.83181   0.
    44.30452  2933.27820   0.
    -0.12722  2955.42655   0.
    24.47411  2943.04615   0.
     4.45051  2952.86019   0.
    40.01017  2935.22543   0.
    52.75593  2931.58993   0.
    13.75183  2934.27842   0.
    32.31862  2938.44653   0.
     0.40990  2931.04902   0.
    19.20708  2946.27332   0.
    57.19103  2930.55709   0.
    -0.97178  2947.27328   0.
    19.39705  2939.49643   0.
    11.08068  2950.12444   0.
    32.86215  2930.47012   0.
     7.41320  2941.82707   0.
    13.76382  2948.77946   0.
    27.17579  2942.79365   0.
     7.27112  2952.68663   0.
     2.71547  2954.94653   0.
    22.91159  2945.17994   0.
     2.00816  2941.86911   0.
    24.73355  2934.79062   0.
    47.86753  2934.00196   0.
    50.62083  2933.29089   0.
    60.15732  2930.28185   0.
    37.65425  2937.53830   0.
    44.64836  2929.77041   0.
    10.93416  2939.02064   0.
     4.26476  2949.76242   0.
    36.78915  2931.78219   0.
     7.36345  2946.13476   0.
    30.92470  2941.06806   0.
     6.19921  2931.10091   0.
    35.16618  2938.51604   0.
    16.36294  2929.87801   0.
    13.43632  2943.77014   0.
    42.64967  2935.50406   0.
    26.89596  2931.23775   0.
     1.59760  2936.73753   0.
    17.19200  2948.13905   0.
    -0.61497  2957.60981   0.
    26.49360  2937.36117   0.
     9.56799  2951.50953   0.
    17.55858  2943.77119   0.
    55.26825  2932.33039   0.
    22.03247  2936.46128   0.
    16.10828  2937.24515   0.
    22.48452  2941.40733   0.
    20.86327  2946.43955   0.
    29.71126  2937.35408   0.
    32.14062  2935.59882   0.
    45.26358  2935.44707   0.
    29.19256  2942.39482   0.
    25.22337  2944.48902   0.
    25.77440  2940.40763   0.
     5.12787  2951.33100   0.
     9.72036  2943.07255   0.
     0.63027  2944.64860   0.
     5.15669  2954.13690   0.
    33.80274  2940.56791   0.
     1.57076  2956.41210   0.
     9.31000  2947.97928   0.
     9.87726  2933.53233   0.
    53.60824  2932.85261   0.
    40.63972  2936.89193   0.
    13.47285  2946.23828   0.
    37.68088  2934.75035   0.
    46.32767  2931.88185   0.
    18.64740  2941.16071   0.
    13.09413  2950.32980   0.
    18.01744  2935.92389   0.
     0.55332  2948.73049   0.
     5.35766  2947.55011   0.
    42.44669  2933.52960   0.
    57.75733  2932.24094   0.
    23.68300  2931.83870   0.
    19.94397  2947.74183   0.
    61.81887  2931.15328   0.
[...]
POINT_DATA      1414
CELL_DATA      2568
SCALARS Resistivity(ohm.m) double 1
LOOKUP_TABLE default
          1231.60195          1765.32136          2202.53222          1183.46428           476.21880          2217.85238          1305.20810          1474.99831          1625.59411          2019.06731           753.58537          1972.81675           534.21136          2446.16845          2385.85886          1823.55908          1586.55819           441.08182           505.41756          2455.09758          1245.40563          1883.87248          1323.03761           623.16056          1885.54026           522.20576           219.71151          2210.84415          2240.96885          2171.26525           509.46602           527.12471          1683.15465           420.10172           314.38822          1557.84738           721.22329           998.55029          1278.20176          1461.90712          1801.28475           644.00304           478.67585          2395.01657           323.24965           436.89882          3000.80616           819.83158           557.33209           983.70798          2778.49821          1872.77863          1057.63386          1576.93574          2121.15679           954.38728           329.84405          2158.10005           503.33459          1149.80019           484.24283          2222.11639           422.08607          1824.36464           235.32735          1535.78588          2161.44288          1994.89595           258.45563           741.77416           504.26278           788.55482          2099.09183           374.25681           256.00852          2944.74469          1499.79151           450.34378           271.27364          2895.08976          2809.04060          1448.06406           488.38115           450.55337          2113.08502           814.06690           310.04377          2113.68235           897.40955          1898.28126          1120.87797           360.87326          2188.80401           300.86118          1628.88645          2046.20155           530.21871          1302.85937          2271.61679          1061.93186          1593.55601           507.89469           617.23579           675.54753          1005.56520          1677.43385           479.75537           968.30586          1980.62693          1388.28720           323.97761          1161.24545          2593.63924          1820.97291          2049.41308          1313.55275          1079.43839          1526.81717           480.90645           284.44277          2346.52228          1459.68791          3016.50650           709.40639           515.70409          2112.19509          2475.10231          3168.99418          1826.33437          1400.47705          2065.10563          1166.27802          1265.30317          2393.78805           817.68917          2854.65437           324.25950          1657.32922          1067.56462          1358.00677          1624.39055           491.56352           606.96972          1340.90088          1664.31482           540.58144           493.73702          1518.76299          1976.06237           565.50920          2169.02645          1936.04259           953.07030           650.97544          2411.96847           229.23270          1606.64896           421.38047          2278.40852          1306.71160          1241.34018           504.96916          2344.21042           482.55041          2133.43044           488.06321          1398.62349          1708.53661          1903.81684          1732.81573           675.94864           748.08630           683.90300           235.25514           465.27987           940.75345           833.75227          3417.24003          2696.14929          1203.63287          2327.33481          1455.70967          2009.89959           723.49379           495.21052          1018.07009           896.99498           652.43836           862.40642          2607.65407          1256.33236          2560.12004           614.13620          2782.94432           240.60248           537.60583          2743.35880          2050.16412          1310.19572           456.39986           227.96171           821.13039          1808.90073          1455.77950          1725.07430          1110.14544          3685.07748          2150.35259           423.51892          2123.99723          1354.12356           568.11181           470.58788           295.14150           614.28619          1264.52666          2442.66281           500.22750          1325.42489           532.20844           886.92513          1411.51471          1178.97069           293.58652           583.77516           660.65069           324.57558           568.33720          1292.66728           337.16431          1077.10526          1892.32964          1464.45758          2946.49671          2515.47705          1669.51481          2586.94075          1488.17425          1477.35870          1418.71002          2710.15597           589.29599          1008.03436           398.30673          2621.46689           214.42942          1874.18079           483.75801           413.65214          2073.10660           209.23780          1912.38334          1737.40596           694.30928          2031.94218          1006.67302           575.86746           728.84311           653.59101          2884.85493           506.68968          2113.14433           474.20983           443.12808           499.36006          1671.71399           319.26877          2200.03526           939.38482          2206.40787          1014.72239          1997.13051          2452.62958          2260.10246           470.79009          1648.12559          2092.93468           458.18312           664.92168           594.27886           459.25628          1390.31367           228.54158           964.57076           915.01537          2204.23971           504.80055          2537.00677           557.82239           426.15278           947.90249           250.73698          2446.91910           666.84135          1972.46682          2310.42591          1508.98370           527.70828           439.95341           654.01601          1054.26129           491.33619          2672.08181          2626.14970           424.08966          1818.53436          1341.18532          1548.69254          1946.45750           328.37682           702.23087           513.75901           272.07112          2244.37387           749.90226           278.54398           474.89963          1185.03123          2768.09904           483.40165          3208.94473           438.04162           904.17697           398.18371           558.00071          1258.98284           492.60840          1389.10476          1108.02744          2893.83331          1788.56233          2157.21365           520.01976          1628.73901           369.00854           444.32591           606.79672           549.32996          3117.73854           592.40403          2238.67543           368.02404          2128.64274           479.48338           558.16265          1804.25430          1277.55991          1107.47581           499.74432          2237.22946           423.89357          2557.10110           792.01403           310.65550           502.21977          2142.05876           494.96532          1636.98180           308.74735           403.40176           809.53502          1503.42314           899.30056           522.02875          1371.35572           484.08496           299.85338          2296.06262          1778.85053          2667.41532           448.57937          1318.64606          1438.95853          1031.58601           283.08513          2737.61938           456.70223           484.87046           444.45692          2076.16943          1401.72570           391.78231          1762.74790          2555.59811           211.67992          1357.53583           514.03236          1421.72360           486.89469          1568.18030           710.14542           346.58096          1429.85146          1354.37584           382.54700           782.26551           568.25119          1364.76516          1727.72280          1048.79164           496.10179           627.94536          1412.82930          1421.71902          1388.00897           883.93547           541.98779           978.52105          2253.28448          1688.30355          1571.65703          2285.02266          1036.86668           621.32724          1168.35304          2640.92873           626.98877           816.47788           642.49536          1765.82714           999.02967           411.76178          2288.08028          1496.38080          1368.88585           260.02451          1572.68411           503.65603          1419.58852           500.34614          1412.01725           477.32700           385.93593          1770.02436          1098.61385          1500.41111          1564.03580           577.93174          1897.84467          1313.61874          3398.83354           628.89794          1250.28901          1905.92474          1212.40399          1154.91492          1298.21079          1276.26125          4040.10415           867.67403          3220.51538          1615.93277          1508.22145          1238.89764          1637.20774           825.56354          2213.34593           952.52430          1439.73988           444.39634          1909.92951          1390.79883           906.86274          1368.84257          2125.23101           828.68054           851.40999          1232.20971          1615.46371          1698.49028           846.61798          1828.43415           892.90321           266.06295          1931.33360          3750.61927          1092.20775           490.27908          1566.35544           679.63022          1120.86214          1792.67381           535.52793           552.77203          2085.45219          2890.84331          1311.16041           295.53088           645.82916           761.46526          1343.70896          1192.78448          1131.42971          1491.65569           808.15856          1444.23505           765.69902          1133.61256          2553.37492          1813.19437           602.65740           265.31998           521.07702          1367.21136           771.42561          1313.50437          3564.41995          1339.10276           377.92889           514.26044          1332.49515          1295.48424           885.62290           409.96449          3127.78568          1378.61109           379.11220          3255.45669          2384.14473           432.49658          1475.95225          1319.35045          1152.07923          1255.57507          1156.29731           558.48365          1639.96589          1426.43387          1450.70837          1328.33717           699.48586          1744.96462           441.80585          1253.18476           583.79163           438.77010           716.13741          1746.54917          1194.05216           968.44030           444.35847           389.43696          1727.61935          1240.82424          3856.33892          4363.47001          3220.25171          1960.19410          2015.66328          2164.75311          3487.72126          5217.27232           649.10817          4145.98118           424.39114          1020.80757          1395.40744           740.16539          3584.30734          5057.02160          1268.21711           420.79911          2213.37813          2782.15700           788.33762           833.32769          1382.77783          3981.94850          1445.46264          2073.55008           963.29921           691.87762          1287.21385          1456.95811           469.53377          3239.11931           537.99817          1459.08803          5366.74008          3615.55700          1679.16850          4832.74489           235.42421           854.03519           526.36626          2000.79851          2892.69013          1929.88692          3300.57222          1890.85640          2723.18653           720.24696          1604.08409          1352.75437          1768.02242          9156.66546          3439.64219           978.18376          4361.23161          4587.83283           843.77983           675.12438          5065.24461          2804.48976          3957.44149          4675.04334          1408.89513           809.89471           605.56189           544.82471           759.08421          4298.65060          1804.89687           947.99923          1479.99493           272.30400          1059.84280          1778.20070          3682.82566          1101.77221           878.28397           666.36440           791.85758          1587.67535          1491.32615           909.88477          2991.08723          2864.91439          3208.11038          3131.44861          5242.36805          4375.32344          2609.53368           580.98031          4132.30406          1181.03441          1697.55595           617.25202          1309.33941           849.56784           381.35757          5876.25285          4940.28659          1475.78014          1623.72065          2896.83160          2326.46824          3312.94459          2849.59160           850.64368          1311.90637           590.95958           819.33075           420.83620           527.83610           778.24653           646.11570          2140.73085          4429.77280          3420.37457          1532.51591          2245.40176          1416.53368          1760.56512          8127.73255          4939.00131          1925.16908           438.38553           556.09351          5211.66336           647.44693          3941.29963          4288.54813          1017.49625          2392.85811           757.84020           888.58302          1019.28356          2565.57687          2604.94550          2549.93929           681.30470           524.09004          1187.88818           306.62999           657.66992           413.72652          3196.85625          5469.33618           488.54984          3001.82078           848.39629          2682.78024          1178.58732           661.16705           615.37725           699.45718           635.18850          1960.88745           744.00523          1421.64159           666.15597          2410.50700          1644.64548          4267.70964          2704.71851           678.32679           559.68757           274.00167          2949.33274           740.75790           825.12367          1275.09755          2562.68783           721.79896           832.94836           553.57691          1299.61956          1098.37933          1643.82720          1438.15857           625.82798           777.42520           651.82874          2800.46329          1855.54768          1201.84857          7739.60824           996.40484           934.90696           884.85739          1614.60218          2700.34661          1438.42298          1500.38619          1675.67228          2678.77485           673.07741          6887.27980          1534.20174          2868.32901           858.28591          1210.45130          4369.79912          2830.42882           790.55203          1139.60448          3068.46641           510.82292           499.75325          1217.46628          2717.75516          5534.02515          1408.17359          6982.31043          1332.24528          1754.70540          1451.95414          1157.56119           505.94759           776.61049          2777.24291           660.97283          4267.22842           688.77369          3419.23232           829.58964           751.00146          1512.96157          1940.56065          2864.06857          4876.81637          2763.85355          1399.43994          1745.71702          1198.54946          5482.45868          7558.59259          1801.53642           999.46263          2753.02413           627.96540          1137.39391           916.27902          2865.70232          1150.99839           970.20845           599.74122           622.07478          3290.30118          1036.55523           776.52249          6176.27600          3787.02784          2216.86371          1429.46131          8116.46024           871.19625          2663.71872          2996.55274          2404.18427          1175.88956          2982.35951          5496.47560          1662.64408           432.86507           681.58722           843.50249          1929.20847          1804.16675           663.60994           701.42263          6705.31810           767.21901          1244.43986          1741.73825          3623.03075          5239.76413           484.96050          1319.48086           805.10384          1061.33835          2035.25856           689.67401           813.02264          1444.90151           794.39332           673.25813           427.23571           820.72538          3008.16863           546.79451          3026.80846          1633.12486          2060.26653          1327.41342          1846.49904          1446.39986           433.95728          4494.67167          1525.99665          1799.27131          1973.60537          2369.12271          5595.50782           925.52603          4874.47278           540.22489           664.92054          1466.92541          1148.68066          7583.29980          2818.22939           916.22106          1593.27353          4045.63285          3235.95549           578.62464          5002.10718          1539.44993          2887.46339          1049.67301          3429.14105          3669.17638           502.40083          3433.21639          3938.64275          2447.12740          5664.77016           835.15564           746.07793          1137.26298          2286.34407           474.79379          9095.56905          3944.39165           588.18543          1686.07397          1681.16923          2091.79677           760.91932          1160.14833         14150.42265           658.12778          2254.36656          1293.43727           515.55301           823.46178          2537.96304          5285.73730          6028.43712          1590.27955          2262.12038          2599.44719          4392.66168           689.00494          1495.48437          2314.56939          1781.74029          5384.10897           616.06216          1146.12742          2749.16325           762.88819          4035.22617          2372.49152          6421.62649          2991.46933          1273.23604          1093.36327           611.83577          5346.76526          7030.70831          2117.94915           262.72355           401.48850           784.04391           795.88859          6245.86834          1297.98694          1990.94803          2961.30178          2329.58686          5530.45558          5922.26072           389.73887           566.13977           722.71533          1260.69714           639.74026          4292.79689          3739.50684          1436.34379           707.27769          1028.38825          2365.75019          3377.04792          2320.37569          2235.23477           885.11609          4069.06857          7302.88973           494.05147           608.46123          1605.83864          7277.68001          2034.00769          3082.37351          4942.94341           751.63268          1849.73911          4163.60021           520.94371          1414.63547           990.23300          5506.80464           902.84693          1572.04445          2728.15887          5217.39572          5361.87270          5671.33052          4510.14325          4310.83258          1744.26991           822.68337          3581.81135         10096.75424           715.66003          2661.32573          2628.30654           236.06833          2156.62553          3771.83506          2781.79396           431.00445          4283.17253           781.76593          3166.73702          4066.74578          1751.03241           810.24550          3266.43048          3357.33400          5527.70219          6178.17860          5010.71667           639.79033           703.35023          1324.25588          5318.20800          1089.22606          2962.37372           895.96735           586.999