# vtk DataFile Version 3.0
Output from R2
ASCII
DATASET UNSTRUCTURED_GRID
POINTS       1414 double
     0.00000  2968.10000   0.
     1.54000  2966.60000   0.
     3.08000  2964.90000   0.
     4.61000  2964.10000   0.
     6.15000  2963.30000   0.
     7.69000  2962.60000   0.
     9.23000  2961.50000   0.
    10.76000  2960.70000   0.
    12.30000  2960.00000   0.
    13.84000  2959.30000   0.
    15.38000  2958.70000   0.
    16.91000  2958.10000   0.
    18.45000  2957.30000   0.
    19.99000  2956.60000   0.
    21.52000  2955.80000   0.
    23.06000  2955.00000   0.
    24.60000  2954.30000   0.
    26.14000  2953.50000   0.
    27.68000  2952.80000   0.
    29.21000  2951.90000   0.
    30.75000  2951.10000   0.
    32.29000  2950.20000   0.
    33.83000  2949.50000   0.
    35.36000  2948.70000   0.
    36.90000  2948.10000   0.
    38.44000  2947.30000   0.
    39.98000  2946.70000   0.
    41.51000  2946.10000   0.
    43.05000  2945.50000   0.
    44.59000  2945.10000   0.
    46.13000  2944.50000   0.
    47.66000  2944.10000   0.
    49.20000  2943.60000   0.
    50.74000  2943.40000   0.
    52.28000  2943.00000   0.
    53.81000  2942.50000   0.
    55.35000  2942.10000   0.
    56.89000  2941.60000   0.
    58.43000  2941.00000   0.
    59.96000  2940.60000   0.
    61.50000  2940.10000   0.
    63.04000  2939.50000   0.
    64.58000  2939.10000   0.
    66.11000  2939.20000   0.
    67.65000  2939.20000   0.
    69.19000  2939.10000   0.
    70.73000  2938.90000   0.
    72.26000  2938.60000   0.
    73.80000  2938.30000   0.
    75.34000  2938.50000   0.
    76.88000  2938.70000   0.
    78.41000  2938.60000   0.
    79.95000  2938.80000   0.
    81.49000  2938.90000   0.
    83.03000  2939.10000   0.
    84.56000  2939.10000   0.
     3.42000  2957.55000   0.
     8.97000  2954.51000   0.
    14.52000  2951.86000   0.
    20.07000  2949.38000   0.
    25.63000  2946.59000   0.
    31.18000  2943.67000   0.
    36.73000  2940.99000   0.
    42.28000  2938.62000   0.
    47.83000  2936.87000   0.
    53.39000  2935.46000   0.
    58.94000  2933.69000   0.
    64.49000  2931.95000   0.
    70.04000  2931.81000   0.
    75.60000  2931.36000   0.
    81.15000  2931.70000   0.
     0.51333  2967.60000   0.
     1.02667  2967.10000   0.
     2.05333  2966.03333   0.
     2.56667  2965.46667   0.
     3.59000  2964.63333   0.
     4.10000  2964.36667   0.
     5.12333  2963.83333   0.
     5.63667  2963.56667   0.
     6.66333  2963.06667   0.
     7.17667  2962.83333   0.
     8.20333  2962.23333   0.
     8.71667  2961.86667   0.
     9.74000  2961.23333   0.
    10.25000  2960.96667   0.
    11.27333  2960.46667   0.
    11.78667  2960.23333   0.
    12.81333  2959.76667   0.
    13.32667  2959.53333   0.
    14.35333  2959.10000   0.
    14.86667  2958.90000   0.
    15.89000  2958.50000   0.
    16.40000  2958.30000   0.
    17.42333  2957.83333   0.
    17.93667  2957.56667   0.
    18.96333  2957.06667   0.
    19.47667  2956.83333   0.
    20.50000  2956.33333   0.
    21.01000  2956.06667   0.
    22.03333  2955.53333   0.
    22.54667  2955.26667   0.
    23.57333  2954.76667   0.
    24.08667  2954.53333   0.
    25.11333  2954.03333   0.
    25.62667  2953.76667   0.
    26.65333  2953.26667   0.
    27.16667  2953.03333   0.
    28.19000  2952.50000   0.
    28.70000  2952.20000   0.
    29.72333  2951.63333   0.
    30.23667  2951.36667   0.
    31.26333  2950.80000   0.
    31.77667  2950.50000   0.
    32.80333  2949.96667   0.
    33.31667  2949.73333   0.
    34.34000  2949.23333   0.
    34.85000  2948.96667   0.
    35.87333  2948.50000   0.
    36.38667  2948.30000   0.
    37.41333  2947.83333   0.
    37.92667  2947.56667   0.
    38.95333  2947.10000   0.
    39.46667  2946.90000   0.
    40.49000  2946.50000   0.
    41.00000  2946.30000   0.
    42.02333  2945.90000   0.
    42.53667  2945.70000   0.
    43.56333  2945.36667   0.
    44.07667  2945.23333   0.
    45.10333  2944.90000   0.
    45.61667  2944.70000   0.
    46.64000  2944.36667   0.
    47.15000  2944.23333   0.
    48.17333  2943.93333   0.
    48.68667  2943.76667   0.
    49.71333  2943.53333   0.
    50.22667  2943.46667   0.
    51.25333  2943.26667   0.
    51.76667  2943.13333   0.
    52.79000  2942.83333   0.
    53.30000  2942.66667   0.
    54.32333  2942.36667   0.
    54.83667  2942.23333   0.
    55.86333  2941.93333   0.
    56.37667  2941.76667   0.
    57.40333  2941.40000   0.
    57.91667  2941.20000   0.
    58.94000  2940.86667   0.
    59.45000  2940.73333   0.
    60.47333  2940.43333   0.
    60.98667  2940.26667   0.
    62.01333  2939.90000   0.
    62.52667  2939.70000   0.
    63.55333  2939.36667   0.
    64.06667  2939.23333   0.
    65.34500  2939.15000   0.
    66.88000  2939.20000   0.
    68.42000  2939.15000   0.
    69.70333  2939.03333   0.
    70.21667  2938.96667   0.
    71.24000  2938.80000   0.
    71.75000  2938.70000   0.
    72.77333  2938.50000   0.
    73.28667  2938.40000   0.
    74.31333  2938.36667   0.
    74.82667  2938.43333   0.
    75.85333  2938.56667   0.
    76.36667  2938.63333   0.
    77.64500  2938.65000   0.
    78.92333  2938.66667   0.
    79.43667  2938.73333   0.
    80.72000  2938.85000   0.
    82.00333  2938.96667   0.
    82.51667  2939.03333   0.
    83.79500  2939.10000   0.
     0.08400  2959.57200   0.
     1.19600  2958.89800   0.
     2.30800  2958.22400   0.
     4.53000  2956.94200   0.
     5.64000  2956.33400   0.
     6.75000  2955.72600   0.
     7.86000  2955.11800   0.
    10.35750  2953.84750   0.
    11.74500  2953.18500   0.
    13.13250  2952.52250   0.
    15.90750  2951.24000   0.
    17.29500  2950.62000   0.
    18.68250  2950.00000   0.
    21.18200  2948.82200   0.
    22.29400  2948.26400   0.
    23.40600  2947.70600   0.
    24.51800  2947.14800   0.
    26.74000  2946.00600   0.
    27.85000  2945.42200   0.
    28.96000  2944.83800   0.
    30.07000  2944.25400   0.
    32.56750  2943.00000   0.
    33.95500  2942.33000   0.
    35.34250  2941.66000   0.
    38.11750  2940.39750   0.
    39.50500  2939.80500   0.
    40.89250  2939.21250   0.
    43.66750  2938.18250   0.
    45.05500  2937.74500   0.
    46.44250  2937.30750   0.
    49.22000  2936.51750   0.
    50.61000  2936.16500   0.
    52.00000  2935.81250   0.
    54.77750  2935.01750   0.
    56.16500  2934.57500   0.
    57.55250  2934.13250   0.
    60.32750  2933.25500   0.
    61.71500  2932.82000   0.
    63.10250  2932.38500   0.
    65.87750  2931.91500   0.
    67.26500  2931.88000   0.
    68.65250  2931.84500   0.
    71.43000  2931.69750   0.
    72.82000  2931.58500   0.
    74.21000  2931.47250   0.
    76.98750  2931.44500   0.
    78.37500  2931.53000   0.
    79.76250  2931.61500   0.
    82.53750  2931.75500   0.
    83.92500  2931.81000   0.
     6.60134  2937.05984   0.
    20.80435  2932.52560   0.
     3.78758  2946.36592   0.
    15.48523  2940.98228   0.
    29.30091  2934.50364   0.
    23.90594  2939.46561   0.
    40.87322  2931.62711   0.
     1.03219  2951.87344   0.
    10.83406  2946.32292   0.
    20.42668  2943.42459   0.
    48.80952  2930.83467   0.
    35.50309  2935.49258   0.
     7.54365  2949.73854   0.
    28.57967  2939.84283   0.
    15.90963  2945.83181   0.
    44.30452  2933.27820   0.
    -0.12722  2955.42655   0.
    24.47411  2943.04615   0.
     4.45051  2952.86019   0.
    40.01017  2935.22543   0.
    52.75593  2931.58993   0.
    13.75183  2934.27842   0.
    32.31862  2938.44653   0.
     0.40990  2931.04902   0.
    19.20708  2946.27332   0.
    57.19103  2930.55709   0.
    -0.97178  2947.27328   0.
    19.39705  2939.49643   0.
    11.08068  2950.12444   0.
    32.86215  2930.47012   0.
     7.41320  2941.82707   0.
    13.76382  2948.77946   0.
    27.17579  2942.79365   0.
     7.27112  2952.68663   0.
     2.71547  2954.94653   0.
    22.91159  2945.17994   0.
     2.00816  2941.86911   0.
    24.73355  2934.79062   0.
    47.86753  2934.00196   0.
    50.62083  2933.29089   0.
    60.15732  2930.28185   0.
    37.65425  2937.53830   0.
    44.64836  2929.77041   0.
    10.93416  2939.02064   0.
     4.26476  2949.76242   0.
    36.78915  2931.78219   0.
     7.36345  2946.13476   0.
    30.92470  2941.06806   0.
     6.19921  2931.10091   0.
    35.16618  2938.51604   0.
    16.36294  2929.87801   0.
    13.43632  2943.77014   0.
    42.64967  2935.50406   0.
    26.89596  2931.23775   0.
     1.59760  2936.73753   0.
    17.19200  2948.13905   0.
    -0.61497  2957.60981   0.
    26.49360  2937.36117   0.
     9.56799  2951.50953   0.
    17.55858  2943.77119   0.
    55.26825  2932.33039   0.
    22.03247  2936.46128   0.
    16.10828  2937.24515   0.
    22.48452  2941.40733   0.
    20.86327  2946.43955   0.
    29.71126  2937.35408   0.
    32.14062  2935.59882   0.
    45.26358  2935.44707   0.
    29.19256  2942.39482   0.
    25.22337  2944.48902   0.
    25.77440  2940.40763   0.
     5.12787  2951.33100   0.
     9.72036  2943.07255   0.
     0.63027  2944.64860   0.
     5.15669  2954.13690   0.
    33.80274  2940.56791   0.
     1.57076  2956.41210   0.
     9.31000  2947.97928   0.
     9.87726  2933.53233   0.
    53.60824  2932.85261   0.
    40.63972  2936.89193   0.
    13.47285  2946.23828   0.
    37.68088  2934.75035   0.
    46.32767  2931.88185   0.
    18.64740  2941.16071   0.
    13.09413  2950.32980   0.
    18.01744  2935.92389   0.
     0.55332  2948.73049   0.
     5.35766  2947.55011   0.
    42.44669  2933.52960   0.
    57.75733  2932.24094   0.
    23.68300  2931.83870   0.
    19.94397  2947.74183   0.
    61.81887  2931.15328   0.
[...]
POINT_DATA      1414
CELL_DATA      2568
SCALARS Resistivity(ohm.m) double 1
LOOKUP_TABLE default
          1151.19951          1788.39744          2301.86142          1119.31797           526.05165          2337.22269          1295.17565          1469.97462          1628.72922          2108.03208           672.68637          2047.09997           589.17419          2437.80082          2393.11005          1885.48091          1589.05740           388.65479           513.30176          2491.67467          1190.95159          1909.09393          1268.35565           667.02543          1932.17017           520.34472           263.34629          2320.90911          2266.22260          2298.83925           531.35231           520.15267          1693.21214           379.87804           392.01876          1705.27458           618.81850           948.32286          1226.20815          1598.08932          1819.28047           601.40264           531.92010          2410.87208           377.30089           399.31360          2908.06072           730.45709           587.07516           814.06972          2630.77297          1913.24093           910.59102          1580.64745          2270.30045           931.25036           407.01206          2291.24767           446.47232           999.85225           544.24551          2257.50936           383.81757          1839.71974           277.08372          1528.06952          2247.83321          2069.20207           315.31200           813.51595           495.75032           651.47904          2134.63249           456.69144           299.46295          2986.16976          1412.71137           390.99460           297.61738          2771.97883          2662.85491          1383.82331           440.83058           422.89020          2159.42459           876.56018           377.49968          2140.37788           731.03599          1936.56225          1040.83513           410.99520          2318.16737           330.67787          1811.75390          2088.41169           490.02026          1148.73169          2296.23084          1004.74099          1553.34383           557.08051           657.13241           629.60650           973.98030          1690.78720           520.20195           846.10705          2145.37127          1236.23947           357.25743          1022.34866          2606.89415          1821.39273          2081.29034          1277.77674           917.04963          1515.11019           511.17847           351.68378          2422.27597          1384.62000          2998.41555           708.07326           462.88404          2187.81938          2492.41842          3213.72504          1816.02701          1413.60772          2156.44126          1118.49635          1222.07873          2399.97064           750.88123          2896.97729           346.53575          1672.24891          1027.65590          1328.03860          1616.06845           533.73480           650.85744          1311.82768          1677.74549           586.38290           480.95297          1474.19475          2032.54132           574.45301          2297.48843          1976.09185           855.38417           591.52904          2436.18894           274.55872          1562.07982           370.25538          2302.51127          1266.59759          1078.82699           540.27007          2366.79834           472.66624          2263.76190           556.62172          1469.86908          1812.39052          1926.91546          1759.34156           607.93694           713.91798           712.66950           288.68027           438.36867           774.31099           879.10234          3576.15090          2724.22019          1075.89577          2394.74573          1328.45698          2084.03732           736.13556           549.59787          1000.61578           927.23775           699.66534           717.43533          2572.50171          1209.66783          2523.01739           673.90067          2685.95832           287.48267           575.09021          2637.16367          2144.26742          1220.99338           468.92736           266.27912           674.59232          1791.71851          1435.14779          1785.73052          1065.33587          3887.70116          2286.87549           441.44170          2256.24165          1306.50970           611.15786           461.43073           369.19194           636.47721          1185.98445          2446.22905           485.25892          1220.40774           565.15001           722.53711          1271.73318          1069.79623           367.96850           610.44926           730.08494           339.39163           623.70868          1253.03366           346.55408           899.19336          2034.91647          1404.76654          3002.18673          2497.52241          1610.16278          2530.39592          1347.54195          1343.65835          1360.55552          2657.90708           597.64347          1006.91985           470.55918          2555.81269           263.37346          1912.47604           496.90574           386.11144          2183.67092           254.45911          2017.93979          1683.11641           750.52465          2104.03905           913.81443           598.70372           776.35955           657.62294          2929.42246           578.35554          2239.84580           426.34177           503.53925           457.08248          1586.75349           398.51576          2320.96330           965.08725          2321.04016           840.32092          2104.27744          2474.45178          2346.65238           446.67095          1630.03690          2221.31955           415.64363           595.26106           584.72446           409.49444          1364.54898           284.29634           896.73018           777.75712          2312.74174           530.70562          2517.24112           586.90281           412.43316           776.47287           309.56271          2441.26607           746.42130          2034.57493          2396.65059          1396.44188           565.35184           512.89665           706.63019           893.97282           468.61653          2575.60138          2619.32885           370.71326          1848.32412          1300.50647          1531.32024          1976.80299           344.41142           769.47114           573.45724           320.40596          2358.34662           647.15802           346.22685           498.10411          1013.79939          2802.74630           467.14766          3316.47460           408.94350           928.34121           395.61499           596.49123          1204.18881           470.42603          1364.06458          1077.52733          2894.07221          1807.49473          2270.37211           587.45008          1526.82593           370.76825           424.65633           657.23846           590.53547          3199.92823           607.50584          2288.19549           368.82733          2228.20978           416.23009           601.75042          1836.84828          1138.75633          1014.14569           457.34622          2314.22331           395.11591          2544.30226           832.26451           366.89060           512.91688          2203.98887           518.26252          1548.65821           350.96946           438.76977           676.34247          1496.18937           781.41860           600.91298          1336.92243           567.12814           365.72506          2395.90069          1743.25663          2696.73706           393.15707          1282.08126          1401.98624           856.61262           313.40859          2716.61777           421.39042           456.78313           383.55640          2133.20950          1353.98531           377.41830          1783.70385          2510.96814           253.52890          1325.28476           566.54119          1263.44098           478.90520          1443.78524           790.64641           368.45537          1409.32507          1406.83620           381.41226           676.74994           652.44973          1266.84662          1752.96515           889.03615           563.95731           712.28520          1335.90164          1398.53342          1300.17036           877.41445           545.62904           966.73147          2362.08946          1642.73329          1475.93701          2316.16807           866.99584           677.95993          1055.03482          2569.77884           588.57437           879.25727           625.21689          1726.99799           841.79285           417.94541          2339.27340          1356.58809          1255.90801           301.90520          1609.18628           560.92443          1388.91956           436.51751          1309.83346           418.14411           376.46383          1946.64601           989.01031          1467.31304          1482.79530           586.77498          1932.00576          1225.16657          3559.80699           660.37954          1185.42352          2086.64019          1160.10489          1023.67900          1260.49916          1212.87569          4203.59540           879.63226          3316.92679          1559.33047          1425.84684          1110.55343          1653.91034           796.24240          2242.58376           957.65853          1286.62074           382.65010          1963.11644          1324.18069           923.08235          1222.73546          2245.68280           819.47122           720.45766          1058.32692          1714.24155          1639.21640           691.50370          1867.54292           835.59812           299.74598          1987.47054          3908.80419           921.96948           437.25060          1444.21842           664.43464           984.06880          1937.20907           566.03083           488.89226          2195.46327          2725.97061          1144.94699           343.55405           598.68493           739.85297          1279.73113          1018.24967          1097.36393          1480.91066           833.67133          1426.53304           788.14321          1033.20523          2577.92475          1851.31611           589.10385           316.89698           571.47444          1239.04068           780.49325          1186.25039          3671.12947          1256.33160           399.61240           530.65690          1163.87724          1184.79827           811.38598           461.31582          3209.06579          1349.45220           414.82203          3334.56100          2408.07700           376.16672          1373.87692          1249.08159          1088.63932          1084.52019          1075.77283           627.04456          1548.19090          1407.09977          1435.13388          1194.93844           742.17812          1710.08437           387.37057          1105.13167           663.22672           379.06064           748.13152          1729.00057          1097.64444           978.82473           386.28879           448.20299          1721.84078          1144.08729          3981.40717          4167.74074          3186.55227          2170.72668          2007.68242          2189.51409          3437.27537          4921.28171           607.71517          4592.41528           452.41113          1080.97208          1460.21721           743.73704          3534.35437          5150.09990          1181.04791           475.22708          2267.24878          2570.12792           777.23435           767.81573          1400.02953          4354.60504          1455.72062          2243.76199           942.05454           698.09354          1269.22832          1490.37159           476.82354          3181.00770           479.18663          1294.02887          5337.68130          3796.26141          1769.73621          4829.84530           270.82493           798.67541           467.29837          1945.37872          2678.19309          1967.57261          3057.23305          1978.56200          2569.91170           742.15169          1704.15653          1396.20160          1953.88157          8882.14554          3345.29683           954.49103          4860.48007          4474.65485           817.38609           601.27247          5010.10464          2833.65071          4303.11972          4850.09034          1359.22710           922.26663           571.24101           593.29452           844.30031          4285.96729          1834.06955          1021.67495          1669.63989           298.72046           958.76891          1848.85493          3453.18803          1111.74455           865.61905           673.68205           828.51445          1543.75243          1407.71459           880.59317          2942.24561          2889.41427          3161.24117          3172.47261          5970.97368          4367.14350          2608.07815           619.36389          4182.73087          1266.22813          1784.39974           618.45208          1318.91398           931.65359           369.81769          6256.41987          5391.37746          1561.94525          1632.23621          2657.08827          2357.49410          2978.54084          2799.45889           954.16309          1224.13158           559.68461           823.37230           419.58170           487.32097           774.19657           615.85494          2222.46644          4380.57974          3363.23035          1645.85904          2309.15179          1453.46360          1565.40420          7968.89153          5134.74083          1908.60314           435.47969           522.61777          5180.52698           632.76459          3572.82346          4042.51460           955.47477          2389.43538           741.13937           953.27729           963.03334          2465.43897          2475.51067          2566.77969           689.61491           562.49261           958.53983           354.99605           599.58314           460.81597          3178.67829          5585.00178           492.84585          3056.71269           798.89975          2607.54238          1034.44157           639.72927           571.54652           751.53892           672.83712          2056.63080           682.76852          1497.61157           620.73351          2373.18727          1829.92358          4290.43415          2860.08644           719.67494           535.18321           315.72586          2945.57324           784.37351           808.15966          1434.80670          2645.94756           714.26242           806.14263           533.74535          1424.58516          1142.61764          1810.27561          1499.49840           633.32909           737.84056           673.07105          2616.03513          1836.58707          1239.86532          7606.25464           975.33364           896.22199           981.55197          1546.49458          2498.52199          1605.95389          1465.41361          1652.41118          2711.34476           587.43186          6960.79627          1655.24267          2641.53263           797.42794           967.36467          4197.09839          2776.68715           755.31025          1253.93409          2999.67543           509.32978           467.52875          1135.52962          2806.86053          5839.82998          1480.29033          7108.45186          1466.25054          1677.20796          1600.99191          1001.26455           468.12119           725.03833          2595.53408           627.71882          4301.02469           698.55483          3248.75989           757.91676           833.85446          1600.51065          2023.23945          2695.40313          4721.42302          2759.01984          1324.60394          1839.11314          1279.83584          5347.76003          7277.66231          1977.75406          1031.31116          2820.70466           639.01982           955.74050           833.14340          2693.67084           952.99810           963.88918           527.31365           643.99724          3300.14202          1133.57466           747.68286          5960.93223          3702.87415          2137.58721          1283.36017          8221.24525           779.33549          2673.34046          3043.01698          2281.03792          1244.72022          3002.93251          5538.77343          1834.92382           459.66300           690.07571           902.88502          1884.67468          1862.62975           709.20364           722.17804          6641.46512           768.61694          1284.22264          1772.19920          3698.65273          4812.30494           526.73112          1387.36142           872.20713          1105.02048          1893.29700           784.01058           907.06352          1650.44581           787.28646           685.24750           441.80987           857.48929          2780.70159           474.57742          2827.03924          1760.22176          1923.05590          1369.21643          1912.82593          1615.43007           448.01119          4401.79296          1625.69346          1932.93968          1752.83629          2170.91702          4958.44936           964.78634          5499.69314           486.63673           622.26505          1550.46844           961.86605          7468.75567          2642.51474           839.39425          1652.49884          3803.53040          3097.75348           560.79520          4843.66228          1411.59952          2545.46478          1078.55049          3487.88843          3587.92858           483.42948          3493.55270          4107.05835          2551.54548          5476.25378           802.45404           793.63711           964.73888          2337.25020           476.45496          9649.96270          4098.95024           578.28483          1730.47088          1668.46811          2166.36069           719.24633           958.25322         13492.08697           694.53814          2215.33512          1185.18835           512.31776           799.49019          2525.56397          5617.14013          6181.18086          1651.85208          2328.04271          2578.63787          4623.90181           728.00851          1368.74938          2216.03305          1994.78871          5376.10696           589.63733           955.98352          2757.22475           853.55464          3729.25830          2465.12538          6973.63604          3274.17420          1425.00772          1051.32800           655.37577          5175.11688          7388.49096          2089.88491           207.56076           373.09603           893.74534           794.84377          6370.03238          1225.38715          2000.02829          2928.02184          2755.90279          5578.88795          5702.92370           385.65542           505.64395           812.65969          1226.58744           634.40753          4356.79850          3839.36250          1410.83047           696.12863           963.29866          2205.19438          3628.15814          2347.83724          2153.96494           962.93172          4011.70298          7464.73445           489.52705           692.25294          1710.02006          7865.38137          2230.46273          2808.43869          4916.37516           760.90344          1967.14568          4475.09094           493.50226          1560.98671          1056.75081          5961.76978          1010.39332          1771.12367          2750.22489          5155.62401          5369.05366          6144.68950          4574.55004          4193.11982          1592.97365           878.48592          3122.16787         10454.31200           721.09294          2494.42284          2742.05978           278.50061          2450.52602          3445.31261          2580.66418           442.70994          4482.16201           805.31346          3054.00886          4659.83690          1812.90462           733.09417          2976.43329          3601.79324          4871.80467          6148.66640          5553.91909           585.91143           698.17279          1243.86682          5062.53083          1163.48621          2588.16259           907.74913           571.221