# vtk DataFile Version 3.0
Output from R2
ASCII
DATASET UNSTRUCTURED_GRID
POINTS       1414 double
     0.00000  2968.10000   0.
     1.54000  2966.60000   0.
     3.08000  2964.90000   0.
     4.61000  2964.10000   0.
     6.15000  2963.30000   0.
     7.69000  2962.60000   0.
     9.23000  2961.50000   0.
    10.76000  2960.70000   0.
    12.30000  2960.00000   0.
    13.84000  2959.30000   0.
    15.38000  2958.70000   0.
    16.91000  2958.10000   0.
    18.45000  2957.30000   0.
    19.99000  2956.60000   0.
    21.52000  2955.80000   0.
    23.06000  2955.00000   0.
    24.60000  2954.30000   0.
    26.14000  2953.50000   0.
    27.68000  2952.80000   0.
    29.21000  2951.90000   0.
    30.75000  2951.10000   0.
    32.29000  2950.20000   0.
    33.83000  2949.50000   0.
    35.36000  2948.70000   0.
    36.90000  2948.10000   0.
    38.44000  2947.30000   0.
    39.98000  2946.70000   0.
    41.51000  2946.10000   0.
    43.05000  2945.50000   0.
    44.59000  2945.10000   0.
    46.13000  2944.50000   0.
    47.66000  2944.10000   0.
    49.20000  2943.60000   0.
    50.74000  2943.40000   0.
    52.28000  2943.00000   0.
    53.81000  2942.50000   0.
    55.35000  2942.10000   0.
    56.89000  2941.60000   0.
    58.43000  2941.00000   0.
    59.96000  2940.60000   0.
    61.50000  2940.10000   0.
    63.04000  2939.50000   0.
    64.58000  2939.10000   0.
    66.11000  2939.20000   0.
    67.65000  2939.20000   0.
    69.19000  2939.10000   0.
    70.73000  2938.90000   0.
    72.26000  2938.60000   0.
    73.80000  2938.30000   0.
    75.34000  2938.50000   0.
    76.88000  2938.70000   0.
    78.41000  2938.60000   0.
    79.95000  2938.80000   0.
    81.49000  2938.90000   0.
    83.03000  2939.10000   0.
    84.56000  2939.10000   0.
     3.42000  2957.55000   0.
     8.97000  2954.51000   0.
    14.52000  2951.86000   0.
    20.07000  2949.38000   0.
    25.63000  2946.59000   0.
    31.18000  2943.67000   0.
    36.73000  2940.99000   0.
    42.28000  2938.62000   0.
    47.83000  2936.87000   0.
    53.39000  2935.46000   0.
    58.94000  2933.69000   0.
    64.49000  2931.95000   0.
    70.04000  2931.81000   0.
    75.60000  2931.36000   0.
    81.15000  2931.70000   0.
     0.51333  2967.60000   0.
     1.02667  2967.10000   0.
     2.05333  2966.03333   0.
     2.56667  2965.46667   0.
     3.59000  2964.63333   0.
     4.10000  2964.36667   0.
     5.12333  2963.83333   0.
     5.63667  2963.56667   0.
     6.66333  2963.06667   0.
     7.17667  2962.83333   0.
     8.20333  2962.23333   0.
     8.71667  2961.86667   0.
     9.74000  2961.23333   0.
    10.25000  2960.96667   0.
    11.27333  2960.46667   0.
    11.78667  2960.23333   0.
    12.81333  2959.76667   0.
    13.32667  2959.53333   0.
    14.35333  2959.10000   0.
    14.86667  2958.90000   0.
    15.89000  2958.50000   0.
    16.40000  2958.30000   0.
    17.42333  2957.83333   0.
    17.93667  2957.56667   0.
    18.96333  2957.06667   0.
    19.47667  2956.83333   0.
    20.50000  2956.33333   0.
    21.01000  2956.06667   0.
    22.03333  2955.53333   0.
    22.54667  2955.26667   0.
    23.57333  2954.76667   0.
    24.08667  2954.53333   0.
    25.11333  2954.03333   0.
    25.62667  2953.76667   0.
    26.65333  2953.26667   0.
    27.16667  2953.03333   0.
    28.19000  2952.50000   0.
    28.70000  2952.20000   0.
    29.72333  2951.63333   0.
    30.23667  2951.36667   0.
    31.26333  2950.80000   0.
    31.77667  2950.50000   0.
    32.80333  2949.96667   0.
    33.31667  2949.73333   0.
    34.34000  2949.23333   0.
    34.85000  2948.96667   0.
    35.87333  2948.50000   0.
    36.38667  2948.30000   0.
    37.41333  2947.83333   0.
    37.92667  2947.56667   0.
    38.95333  2947.10000   0.
    39.46667  2946.90000   0.
    40.49000  2946.50000   0.
    41.00000  2946.30000   0.
    42.02333  2945.90000   0.
    42.53667  2945.70000   0.
    43.56333  2945.36667   0.
    44.07667  2945.23333   0.
    45.10333  2944.90000   0.
    45.61667  2944.70000   0.
    46.64000  2944.36667   0.
    47.15000  2944.23333   0.
    48.17333  2943.93333   0.
    48.68667  2943.76667   0.
    49.71333  2943.53333   0.
    50.22667  2943.46667   0.
    51.25333  2943.26667   0.
    51.76667  2943.13333   0.
    52.79000  2942.83333   0.
    53.30000  2942.66667   0.
    54.32333  2942.36667   0.
    54.83667  2942.23333   0.
    55.86333  2941.93333   0.
    56.37667  2941.76667   0.
    57.40333  2941.40000   0.
    57.91667  2941.20000   0.
    58.94000  2940.86667   0.
    59.45000  2940.73333   0.
    60.47333  2940.43333   0.
    60.98667  2940.26667   0.
    62.01333  2939.90000   0.
    62.52667  2939.70000   0.
    63.55333  2939.36667   0.
    64.06667  2939.23333   0.
    65.34500  2939.15000   0.
    66.88000  2939.20000   0.
    68.42000  2939.15000   0.
    69.70333  2939.03333   0.
    70.21667  2938.96667   0.
    71.24000  2938.80000   0.
    71.75000  2938.70000   0.
    72.77333  2938.50000   0.
    73.28667  2938.40000   0.
    74.31333  2938.36667   0.
    74.82667  2938.43333   0.
    75.85333  2938.56667   0.
    76.36667  2938.63333   0.
    77.64500  2938.65000   0.
    78.92333  2938.66667   0.
    79.43667  2938.73333   0.
    80.72000  2938.85000   0.
    82.00333  2938.96667   0.
    82.51667  2939.03333   0.
    83.79500  2939.10000   0.
     0.08400  2959.57200   0.
     1.19600  2958.89800   0.
     2.30800  2958.22400   0.
     4.53000  2956.94200   0.
     5.64000  2956.33400   0.
     6.75000  2955.72600   0.
     7.86000  2955.11800   0.
    10.35750  2953.84750   0.
    11.74500  2953.18500   0.
    13.13250  2952.52250   0.
    15.90750  2951.24000   0.
    17.29500  2950.62000   0.
    18.68250  2950.00000   0.
    21.18200  2948.82200   0.
    22.29400  2948.26400   0.
    23.40600  2947.70600   0.
    24.51800  2947.14800   0.
    26.74000  2946.00600   0.
    27.85000  2945.42200   0.
    28.96000  2944.83800   0.
    30.07000  2944.25400   0.
    32.56750  2943.00000   0.
    33.95500  2942.33000   0.
    35.34250  2941.66000   0.
    38.11750  2940.39750   0.
    39.50500  2939.80500   0.
    40.89250  2939.21250   0.
    43.66750  2938.18250   0.
    45.05500  2937.74500   0.
    46.44250  2937.30750   0.
    49.22000  2936.51750   0.
    50.61000  2936.16500   0.
    52.00000  2935.81250   0.
    54.77750  2935.01750   0.
    56.16500  2934.57500   0.
    57.55250  2934.13250   0.
    60.32750  2933.25500   0.
    61.71500  2932.82000   0.
    63.10250  2932.38500   0.
    65.87750  2931.91500   0.
    67.26500  2931.88000   0.
    68.65250  2931.84500   0.
    71.43000  2931.69750   0.
    72.82000  2931.58500   0.
    74.21000  2931.47250   0.
    76.98750  2931.44500   0.
    78.37500  2931.53000   0.
    79.76250  2931.61500   0.
    82.53750  2931.75500   0.
    83.92500  2931.81000   0.
     6.60134  2937.05984   0.
    20.80435  2932.52560   0.
     3.78758  2946.36592   0.
    15.48523  2940.98228   0.
    29.30091  2934.50364   0.
    23.90594  2939.46561   0.
    40.87322  2931.62711   0.
     1.03219  2951.87344   0.
    10.83406  2946.32292   0.
    20.42668  2943.42459   0.
    48.80952  2930.83467   0.
    35.50309  2935.49258   0.
     7.54365  2949.73854   0.
    28.57967  2939.84283   0.
    15.90963  2945.83181   0.
    44.30452  2933.27820   0.
    -0.12722  2955.42655   0.
    24.47411  2943.04615   0.
     4.45051  2952.86019   0.
    40.01017  2935.22543   0.
    52.75593  2931.58993   0.
    13.75183  2934.27842   0.
    32.31862  2938.44653   0.
     0.40990  2931.04902   0.
    19.20708  2946.27332   0.
    57.19103  2930.55709   0.
    -0.97178  2947.27328   0.
    19.39705  2939.49643   0.
    11.08068  2950.12444   0.
    32.86215  2930.47012   0.
     7.41320  2941.82707   0.
    13.76382  2948.77946   0.
    27.17579  2942.79365   0.
     7.27112  2952.68663   0.
     2.71547  2954.94653   0.
    22.91159  2945.17994   0.
     2.00816  2941.86911   0.
    24.73355  2934.79062   0.
    47.86753  2934.00196   0.
    50.62083  2933.29089   0.
    60.15732  2930.28185   0.
    37.65425  2937.53830   0.
    44.64836  2929.77041   0.
    10.93416  2939.02064   0.
     4.26476  2949.76242   0.
    36.78915  2931.78219   0.
     7.36345  2946.13476   0.
    30.92470  2941.06806   0.
     6.19921  2931.10091   0.
    35.16618  2938.51604   0.
    16.36294  2929.87801   0.
    13.43632  2943.77014   0.
    42.64967  2935.50406   0.
    26.89596  2931.23775   0.
     1.59760  2936.73753   0.
    17.19200  2948.13905   0.
    -0.61497  2957.60981   0.
    26.49360  2937.36117   0.
     9.56799  2951.50953   0.
    17.55858  2943.77119   0.
    55.26825  2932.33039   0.
    22.03247  2936.46128   0.
    16.10828  2937.24515   0.
    22.48452  2941.40733   0.
    20.86327  2946.43955   0.
    29.71126  2937.35408   0.
    32.14062  2935.59882   0.
    45.26358  2935.44707   0.
    29.19256  2942.39482   0.
    25.22337  2944.48902   0.
    25.77440  2940.40763   0.
     5.12787  2951.33100   0.
     9.72036  2943.07255   0.
     0.63027  2944.64860   0.
     5.15669  2954.13690   0.
    33.80274  2940.56791   0.
     1.57076  2956.41210   0.
     9.31000  2947.97928   0.
     9.87726  2933.53233   0.
    53.60824  2932.85261   0.
    40.63972  2936.89193   0.
    13.47285  2946.23828   0.
    37.68088  2934.75035   0.
    46.32767  2931.88185   0.
    18.64740  2941.16071   0.
    13.09413  2950.32980   0.
    18.01744  2935.92389   0.
     0.55332  2948.73049   0.
     5.35766  2947.55011   0.
    42.44669  2933.52960   0.
    57.75733  2932.24094   0.
    23.68300  2931.83870   0.
    19.94397  2947.74183   0.
    61.81887  2931.15328   0.
[...]
POINT_DATA      1414
CELL_DATA      2568
SCALARS Resistivity(ohm.m) double 1
LOOKUP_TABLE default
          1165.66078          1930.93541          2106.43366          1109.83418           546.39157          2459.67881          1439.50472          1606.51536          1804.60817          2029.18596           689.02895          1933.12316           597.01842          2666.81895          2576.88127          1820.73572          1751.82805           442.10036           532.64941          2935.23174          1333.76397          1869.65830          1365.82451           624.65498          2121.28728           510.76268           235.71159          2475.13875          2355.92924          2082.72474           546.76341           502.42774          1841.57695           380.43916           322.69958          1706.95626           667.42506           883.11541          1313.00581          1641.68961          1986.58680           615.75730           464.34089          2492.81149           315.50166           392.87678          2852.81216           736.47465           593.76500           939.54423          2962.63360          2103.31265           964.14491          1752.35301          1975.43256           845.89318           327.80281          2175.87230           492.70365          1056.29440           555.59450          2488.53187           429.88361          1819.98881           245.96170          1704.10475          2447.25683          2061.06620           263.23664           698.21898           474.09491           726.99660          2309.57225           368.25936           283.59373          2742.51675          1517.82567           452.07889           302.34082          2846.28704          2901.39444          1554.27748           471.09725           400.61934          2380.09455           755.65275           307.96887          2261.31705           842.06080          1986.90926          1010.44645           348.46576          2322.27641           332.56429          1759.46920          2286.14764           567.37411          1233.80786          2492.58290           949.42790          1672.22577           555.74241           608.01801           632.99206           999.41479          1868.89173           544.72827           868.87913          1915.91476          1341.05073           346.24511          1211.74713          2568.85934          1885.37952          2236.32008          1429.68036          1094.06739          1667.31983           470.08675           287.08262          2770.65284          1489.67022          2820.03827           652.69181           542.77175          2392.49772          2504.56964          2908.28164          1835.25475          1553.98226          2245.50052          1105.52467          1331.01443          2680.87435           729.16400          2680.02142           351.40780          1849.59338           962.28886          1488.16630          1754.81955           547.17843           604.29617          1479.55731          1840.47089           568.47340           518.68887          1595.37922          2230.39524           569.04832          2019.20401          2167.42166           845.41183           621.77444          2813.31223           255.65679          1672.29147           394.39470          2415.97783          1390.13208          1169.02540           552.66811          2398.45046           521.51729          2160.23269           569.92886          1569.45740          1773.80341          2082.80659          1932.60782           638.78725           677.15205           644.90808           245.49382           449.05022           895.60112           764.73210          3077.45889          2596.00643          1104.90762          2713.02940          1503.38413          2213.97371           666.01001           550.35770           915.37939           813.55919           632.08320           805.09668          2695.49970          1303.35657          2730.53898           599.18300          2806.71084           248.76276           536.50867          2847.92446          2155.14132          1275.78511           443.62233           255.10420           765.14138          1839.79598          1584.88684          1772.16911          1016.95418          3312.74940          1974.16401           406.29521          2008.63636          1420.17852           580.06940           460.79923           300.12561           606.83807          1222.55718          2564.67452           460.40782          1278.16409           560.70302           837.01515          1370.49239          1075.46550           303.71512           583.12266           633.66366           360.84323           557.71857          1404.88408           331.44047          1064.65830          1861.20345          1517.55256          2732.81551          2924.03519          1705.44426          2936.09433          1507.71293          1455.36515          1470.93017          2730.60931           588.10807           913.56022           386.80064          2816.50081           236.07526          2011.84332           536.67552           430.63784          2086.89474           229.96267          1866.43116          1752.04362           659.75295          2276.24369           891.69598           609.23517           683.01680           618.05304          2694.45453           588.18145          2083.26312           495.70093           427.81062           505.61338          1687.89114           321.64069          2340.63892           854.39097          2001.95251           976.00385          1914.45518          2465.43248          2596.43298           423.46948          1753.36711          1954.20624           417.98739           630.82953           599.67115           425.59732          1517.60932           246.55212           850.65064           836.56051          2217.04450           502.79659          2975.17383           572.25513           464.46378           913.06005           269.95030          2772.18466           636.88855          2210.49080          2697.04792          1504.39810           561.84500           425.98290           632.91717          1051.03785           503.79880          2983.60397          2625.58757           406.67354          2030.39425          1425.39328          1672.54769          2142.31118           363.65753           666.55894           577.59922           272.21443          2520.45066           696.89330           293.83480           533.24252          1196.09512          2623.70825           437.72832          2912.98739           416.24066           904.76915           436.76339           569.16947          1273.64975           520.09491          1524.10338          1029.04547          2742.46329          1925.50048          2356.46904           503.53605          1640.15082           354.26966           423.26298           599.11383           567.49398          2850.84440           591.06000          2557.79005           394.08355          2352.56141           482.15964           579.21812          2021.66489          1196.03879          1094.22174           510.16753          2567.16369           447.43096          2627.46685           728.23270           327.63883           507.58861          2439.49162           543.08397          1654.88269           301.50424           386.98645           752.78028          1666.39401           809.67298           504.59581          1472.44394           468.77455           314.42267          2652.92954          1794.54639          2569.45473           422.74653          1418.42471          1531.95042          1021.37611           284.81663          2691.79418           433.69604           440.96462           436.80065          2353.76698          1472.71835           410.23698          1960.32498          2852.29981           234.58031          1467.41840           557.55852          1414.30528           490.46680          1571.68987           673.14375           331.88275          1565.67954          1510.56932           418.93826           719.35635           547.74417          1461.27517          1933.00621           972.78660           570.25163           602.00416          1432.27544          1569.69823          1384.95604           786.97351           543.64280           873.54804          2559.97056          1740.40377          1583.94700          2582.74598           979.01476           632.44515          1223.95062          3020.35214           611.66289           822.28390           611.46452          1791.34398           926.53174           392.56433          2634.42176          1481.27355          1330.13860           263.13112          1683.88814           558.37298          1527.89452           512.02246          1396.20762           489.30575           414.92660          1825.76672           985.01832          1598.84451          1590.99740           589.25917          2112.65161          1420.71385          3066.99579           620.88986          1227.83677          1901.62638          1189.36657          1049.76733          1402.80136          1274.51329          3655.71733           778.84993          2928.31228          1667.87733          1585.03134          1312.63725          1715.15684           735.06423          2405.96847           854.81707          1415.60326           437.58137          2118.33985          1423.52999           815.76369          1410.00417          2222.58345           740.10869           783.68842          1225.42205          1728.35603          1729.31260           775.12402          2025.61049           788.73871           273.27382          2115.28099          3379.77327          1033.30530           466.69945          1581.98215           632.86328          1137.09116          1822.19620           544.15453           574.70966          2157.16902          2883.48487          1317.42153           316.82902           623.28861           686.93312          1370.01026          1154.82432          1065.39638          1653.71022           734.99312          1596.77780           700.58808          1022.92980          2507.07524          2026.49185           599.11629           288.83764           566.61621          1316.55344           700.45958          1246.32626          3223.96230          1327.35438           360.80144           529.02315          1316.87720          1229.93021           784.25959           394.46355          2858.20170          1516.80353           363.20520          2964.44591          2750.02897           409.85500          1474.37568          1323.39711          1061.51479          1212.36119          1055.96472           542.34742          1662.03942          1572.25172          1599.58277          1393.48863           660.93104          1760.52754           434.04133          1304.64756           563.02274           424.01451           668.17554          1820.15251          1098.41849           875.13711           429.91388           376.00761          1833.63008          1163.26778          4161.17002          4562.57285          3692.69109          2448.41762          2001.96758          2008.80425          3470.52999          4911.07343           610.01785          3566.67921           481.23660           995.72766          1491.77949           692.38920          3722.50518          5053.66023          1292.89985           502.42379          2255.67073          2634.70110           753.99761           817.73629          1503.18918          3746.45442          1537.80092          2150.26503           955.28543           660.22708          1205.09425          1518.27667           523.88733          3097.69753           512.17021          1294.11331          4747.03388          3629.68629          1776.21691          4820.32950           253.79806           743.47296           514.07268          2319.59578          2897.57402          1753.89566          3044.89875          1808.16814          2661.11323           693.66320          1686.10175          1437.66770          1840.52014          9597.91872          3772.10808           848.39318          4038.54259          4346.74191           848.60827           580.14239          5017.72985          3063.62854          3837.49132          4666.70589          1345.73447           792.05618           568.27880           591.74140           758.90116          3977.34647          1705.02749           923.00302          1679.44244           293.48007          1036.04728          1697.42856          4060.97373          1191.01259           864.81999           670.29421           789.54300          1708.47460          1279.56656           967.88587          3480.04163          2619.47668          3000.63029          3491.52381          5001.11114          4275.06832          2894.26399           544.13535          3985.20225          1185.40287          1642.85617           609.01773          1439.68507           888.20566           370.51983          5493.83273          3835.17183          1583.63399          1442.52313          2768.77094          2710.17687          3380.64782          2193.00319           829.68539          1522.17669           658.63394           858.67354           390.06895           523.24000           705.04594           678.89991          2109.24677          4355.37124          3573.45329          1576.41979          2236.18334          1285.29829          1694.12513          8376.72497          4570.88501          2015.24156           390.11250           527.75610          5321.82963           627.48280          4178.75207          5736.19598           994.78276          2125.62350           749.50299           948.80342           995.94337          2382.64441          2362.89732          2232.86506           668.65028           508.03056          1160.43851           321.49382           723.33977           505.97744          3498.37017          5131.21873           523.94912          3422.03613           818.00114          2688.29351          1172.67945           667.83385           650.44564           678.37311           646.73677          1921.39659           765.62180          1692.89874           675.48556          2517.20811          1791.71426          4576.08688          2532.52952           705.71368           643.48987           288.74743          3128.45259           772.86086           787.59004          1291.52369          2787.55624           752.59218           750.27006           607.22063          1338.40876          1125.71559          1690.58311          1475.49538           647.58984           761.75808           660.56992          2818.63006          1938.93493          1163.92065          8221.16943           972.89378           910.93573           902.96116          1830.15125          2349.77620          1629.15696          1713.15850          1642.02866          2772.48024           603.34743          6414.30658          1763.87951          2820.77892           838.02000          1180.77763          4396.98815          2773.88094           680.16434          1204.16670          3515.82121           487.92579           515.54664          1263.49434          2557.15890          5316.87793          1420.27456          6917.60045          1328.52429          1739.40283          1620.97757          1146.66332           511.57326           687.29308          2677.02751           639.97666          3738.43357           662.15391          3156.87579           765.72406           861.17675          1494.33052          2074.20333          2869.23456          5173.88984          2987.44823          1429.40904          2110.93636          1228.79808          4310.83901          7494.93086          1876.49907           983.45517          2813.82512           649.75502          1112.17046          1027.55693          2896.31178          1128.02341           933.59146           528.36520           636.59650          5058.40386          1013.39087           678.16891          6286.47772          4740.69048          1786.61338          1153.74661          8198.55078           996.50312          3049.54020          3262.49149          2344.00567          1152.81336          3253.76940          6083.14409          1611.20611           472.79340           696.53864           826.66620          1738.70651          2038.39640           668.72780           663.06450          6681.69240           727.02743          1297.45073          1753.06056          3812.94270          5130.68128           521.60414          1200.79446           805.75133           957.86794          1665.69024           693.11289           869.23725          1466.38332           701.68879           643.44443           426.37116           871.56425          2875.19464           515.19178          2893.61801          1539.20572          1992.77388          1554.66437          1702.38861          1646.27959           415.85893          5599.14211          1652.51757          1857.77803          2345.28249          2283.66457          5514.10259           913.75242          4557.61735           535.84821           596.92251          1474.86142          1130.61393          7626.55876          2957.59971           869.66187          1650.79350          4823.40621          3707.28434           582.20437          5084.88739          1192.63992          2338.20259          1069.16301          3145.15937          3465.97877           525.35221          3313.98572          4187.39339          2452.24719          5431.80799           744.37710           774.49946          1118.58538          2107.02696           500.03190         10634.72557          3624.49735           591.66297          1567.47831          1657.84493          2371.44492           688.68772          1133.45617         14151.93049           678.35046          2085.46111          1246.36980           455.70473           749.84090          2515.03406          5663.63927          5419.95292          1577.58230          2200.71996          2354.32141          4002.27886           722.85844          1175.86607          2274.01879          1856.97170          5169.22577           674.25336          1125.15884          2446.16325           756.68674          3656.24564          2604.22601          6287.67601          3570.31871          1582.15106          1032.65872           624.13643          5061.02853          7023.47376          1632.49012           225.40950           373.65780           894.65912           764.79092          6018.47096          1308.62548          2122.68595          3378.49342          2377.81643          5348.12192          5793.53404           392.15438           548.09639           727.70203          1324.13342           587.33699          4231.10793          3451.19812          1242.97187           748.79360          1010.19749          2155.04703          3504.17460          2097.89326          2237.08350           865.84703          3270.29208          7645.85413           461.53699           672.79380          1705.66335          7486.62478          2103.10521          3043.05123          4914.11452           816.95225          1943.97775          3736.82132           527.35328          1583.06360          1047.18195          4861.07608           979.17706          1741.30165          2938.23975          5279.00173          5216.31632          5400.93220          3862.78168          4417.64077          1632.40745           836.63904          3153.28958         11870.66264           673.30717          2683.15252          2838.28142           254.15149          2323.37760          4088.87229          2522.27879           432.14061          4501.69895           792.92913          3615.59726          4956.24578          1801.08670           734.89199          3148.54042          3946.10861          5397.59502          5890.45160          4675.07336           590.26329           698.29505          1268.44627          5251.65225          1104.85420          2424.10236           965.82963           607.695