# vtk DataFile Version 3.0
Output from R2
ASCII
DATASET UNSTRUCTURED_GRID
POINTS       1414 double
     0.00000  2968.10000   0.
     1.54000  2966.60000   0.
     3.08000  2964.90000   0.
     4.61000  2964.10000   0.
     6.15000  2963.30000   0.
     7.69000  2962.60000   0.
     9.23000  2961.50000   0.
    10.76000  2960.70000   0.
    12.30000  2960.00000   0.
    13.84000  2959.30000   0.
    15.38000  2958.70000   0.
    16.91000  2958.10000   0.
    18.45000  2957.30000   0.
    19.99000  2956.60000   0.
    21.52000  2955.80000   0.
    23.06000  2955.00000   0.
    24.60000  2954.30000   0.
    26.14000  2953.50000   0.
    27.68000  2952.80000   0.
    29.21000  2951.90000   0.
    30.75000  2951.10000   0.
    32.29000  2950.20000   0.
    33.83000  2949.50000   0.
    35.36000  2948.70000   0.
    36.90000  2948.10000   0.
    38.44000  2947.30000   0.
    39.98000  2946.70000   0.
    41.51000  2946.10000   0.
    43.05000  2945.50000   0.
    44.59000  2945.10000   0.
    46.13000  2944.50000   0.
    47.66000  2944.10000   0.
    49.20000  2943.60000   0.
    50.74000  2943.40000   0.
    52.28000  2943.00000   0.
    53.81000  2942.50000   0.
    55.35000  2942.10000   0.
    56.89000  2941.60000   0.
    58.43000  2941.00000   0.
    59.96000  2940.60000   0.
    61.50000  2940.10000   0.
    63.04000  2939.50000   0.
    64.58000  2939.10000   0.
    66.11000  2939.20000   0.
    67.65000  2939.20000   0.
    69.19000  2939.10000   0.
    70.73000  2938.90000   0.
    72.26000  2938.60000   0.
    73.80000  2938.30000   0.
    75.34000  2938.50000   0.
    76.88000  2938.70000   0.
    78.41000  2938.60000   0.
    79.95000  2938.80000   0.
    81.49000  2938.90000   0.
    83.03000  2939.10000   0.
    84.56000  2939.10000   0.
     3.42000  2957.55000   0.
     8.97000  2954.51000   0.
    14.52000  2951.86000   0.
    20.07000  2949.38000   0.
    25.63000  2946.59000   0.
    31.18000  2943.67000   0.
    36.73000  2940.99000   0.
    42.28000  2938.62000   0.
    47.83000  2936.87000   0.
    53.39000  2935.46000   0.
    58.94000  2933.69000   0.
    64.49000  2931.95000   0.
    70.04000  2931.81000   0.
    75.60000  2931.36000   0.
    81.15000  2931.70000   0.
     0.51333  2967.60000   0.
     1.02667  2967.10000   0.
     2.05333  2966.03333   0.
     2.56667  2965.46667   0.
     3.59000  2964.63333   0.
     4.10000  2964.36667   0.
     5.12333  2963.83333   0.
     5.63667  2963.56667   0.
     6.66333  2963.06667   0.
     7.17667  2962.83333   0.
     8.20333  2962.23333   0.
     8.71667  2961.86667   0.
     9.74000  2961.23333   0.
    10.25000  2960.96667   0.
    11.27333  2960.46667   0.
    11.78667  2960.23333   0.
    12.81333  2959.76667   0.
    13.32667  2959.53333   0.
    14.35333  2959.10000   0.
    14.86667  2958.90000   0.
    15.89000  2958.50000   0.
    16.40000  2958.30000   0.
    17.42333  2957.83333   0.
    17.93667  2957.56667   0.
    18.96333  2957.06667   0.
    19.47667  2956.83333   0.
    20.50000  2956.33333   0.
    21.01000  2956.06667   0.
    22.03333  2955.53333   0.
    22.54667  2955.26667   0.
    23.57333  2954.76667   0.
    24.08667  2954.53333   0.
    25.11333  2954.03333   0.
    25.62667  2953.76667   0.
    26.65333  2953.26667   0.
    27.16667  2953.03333   0.
    28.19000  2952.50000   0.
    28.70000  2952.20000   0.
    29.72333  2951.63333   0.
    30.23667  2951.36667   0.
    31.26333  2950.80000   0.
    31.77667  2950.50000   0.
    32.80333  2949.96667   0.
    33.31667  2949.73333   0.
    34.34000  2949.23333   0.
    34.85000  2948.96667   0.
    35.87333  2948.50000   0.
    36.38667  2948.30000   0.
    37.41333  2947.83333   0.
    37.92667  2947.56667   0.
    38.95333  2947.10000   0.
    39.46667  2946.90000   0.
    40.49000  2946.50000   0.
    41.00000  2946.30000   0.
    42.02333  2945.90000   0.
    42.53667  2945.70000   0.
    43.56333  2945.36667   0.
    44.07667  2945.23333   0.
    45.10333  2944.90000   0.
    45.61667  2944.70000   0.
    46.64000  2944.36667   0.
    47.15000  2944.23333   0.
    48.17333  2943.93333   0.
    48.68667  2943.76667   0.
    49.71333  2943.53333   0.
    50.22667  2943.46667   0.
    51.25333  2943.26667   0.
    51.76667  2943.13333   0.
    52.79000  2942.83333   0.
    53.30000  2942.66667   0.
    54.32333  2942.36667   0.
    54.83667  2942.23333   0.
    55.86333  2941.93333   0.
    56.37667  2941.76667   0.
    57.40333  2941.40000   0.
    57.91667  2941.20000   0.
    58.94000  2940.86667   0.
    59.45000  2940.73333   0.
    60.47333  2940.43333   0.
    60.98667  2940.26667   0.
    62.01333  2939.90000   0.
    62.52667  2939.70000   0.
    63.55333  2939.36667   0.
    64.06667  2939.23333   0.
    65.34500  2939.15000   0.
    66.88000  2939.20000   0.
    68.42000  2939.15000   0.
    69.70333  2939.03333   0.
    70.21667  2938.96667   0.
    71.24000  2938.80000   0.
    71.75000  2938.70000   0.
    72.77333  2938.50000   0.
    73.28667  2938.40000   0.
    74.31333  2938.36667   0.
    74.82667  2938.43333   0.
    75.85333  2938.56667   0.
    76.36667  2938.63333   0.
    77.64500  2938.65000   0.
    78.92333  2938.66667   0.
    79.43667  2938.73333   0.
    80.72000  2938.85000   0.
    82.00333  2938.96667   0.
    82.51667  2939.03333   0.
    83.79500  2939.10000   0.
     0.08400  2959.57200   0.
     1.19600  2958.89800   0.
     2.30800  2958.22400   0.
     4.53000  2956.94200   0.
     5.64000  2956.33400   0.
     6.75000  2955.72600   0.
     7.86000  2955.11800   0.
    10.35750  2953.84750   0.
    11.74500  2953.18500   0.
    13.13250  2952.52250   0.
    15.90750  2951.24000   0.
    17.29500  2950.62000   0.
    18.68250  2950.00000   0.
    21.18200  2948.82200   0.
    22.29400  2948.26400   0.
    23.40600  2947.70600   0.
    24.51800  2947.14800   0.
    26.74000  2946.00600   0.
    27.85000  2945.42200   0.
    28.96000  2944.83800   0.
    30.07000  2944.25400   0.
    32.56750  2943.00000   0.
    33.95500  2942.33000   0.
    35.34250  2941.66000   0.
    38.11750  2940.39750   0.
    39.50500  2939.80500   0.
    40.89250  2939.21250   0.
    43.66750  2938.18250   0.
    45.05500  2937.74500   0.
    46.44250  2937.30750   0.
    49.22000  2936.51750   0.
    50.61000  2936.16500   0.
    52.00000  2935.81250   0.
    54.77750  2935.01750   0.
    56.16500  2934.57500   0.
    57.55250  2934.13250   0.
    60.32750  2933.25500   0.
    61.71500  2932.82000   0.
    63.10250  2932.38500   0.
    65.87750  2931.91500   0.
    67.26500  2931.88000   0.
    68.65250  2931.84500   0.
    71.43000  2931.69750   0.
    72.82000  2931.58500   0.
    74.21000  2931.47250   0.
    76.98750  2931.44500   0.
    78.37500  2931.53000   0.
    79.76250  2931.61500   0.
    82.53750  2931.75500   0.
    83.92500  2931.81000   0.
     6.60134  2937.05984   0.
    20.80435  2932.52560   0.
     3.78758  2946.36592   0.
    15.48523  2940.98228   0.
    29.30091  2934.50364   0.
    23.90594  2939.46561   0.
    40.87322  2931.62711   0.
     1.03219  2951.87344   0.
    10.83406  2946.32292   0.
    20.42668  2943.42459   0.
    48.80952  2930.83467   0.
    35.50309  2935.49258   0.
     7.54365  2949.73854   0.
    28.57967  2939.84283   0.
    15.90963  2945.83181   0.
    44.30452  2933.27820   0.
    -0.12722  2955.42655   0.
    24.47411  2943.04615   0.
     4.45051  2952.86019   0.
    40.01017  2935.22543   0.
    52.75593  2931.58993   0.
    13.75183  2934.27842   0.
    32.31862  2938.44653   0.
     0.40990  2931.04902   0.
    19.20708  2946.27332   0.
    57.19103  2930.55709   0.
    -0.97178  2947.27328   0.
    19.39705  2939.49643   0.
    11.08068  2950.12444   0.
    32.86215  2930.47012   0.
     7.41320  2941.82707   0.
    13.76382  2948.77946   0.
    27.17579  2942.79365   0.
     7.27112  2952.68663   0.
     2.71547  2954.94653   0.
    22.91159  2945.17994   0.
     2.00816  2941.86911   0.
    24.73355  2934.79062   0.
    47.86753  2934.00196   0.
    50.62083  2933.29089   0.
    60.15732  2930.28185   0.
    37.65425  2937.53830   0.
    44.64836  2929.77041   0.
    10.93416  2939.02064   0.
     4.26476  2949.76242   0.
    36.78915  2931.78219   0.
     7.36345  2946.13476   0.
    30.92470  2941.06806   0.
     6.19921  2931.10091   0.
    35.16618  2938.51604   0.
    16.36294  2929.87801   0.
    13.43632  2943.77014   0.
    42.64967  2935.50406   0.
    26.89596  2931.23775   0.
     1.59760  2936.73753   0.
    17.19200  2948.13905   0.
    -0.61497  2957.60981   0.
    26.49360  2937.36117   0.
     9.56799  2951.50953   0.
    17.55858  2943.77119   0.
    55.26825  2932.33039   0.
    22.03247  2936.46128   0.
    16.10828  2937.24515   0.
    22.48452  2941.40733   0.
    20.86327  2946.43955   0.
    29.71126  2937.35408   0.
    32.14062  2935.59882   0.
    45.26358  2935.44707   0.
    29.19256  2942.39482   0.
    25.22337  2944.48902   0.
    25.77440  2940.40763   0.
     5.12787  2951.33100   0.
     9.72036  2943.07255   0.
     0.63027  2944.64860   0.
     5.15669  2954.13690   0.
    33.80274  2940.56791   0.
     1.57076  2956.41210   0.
     9.31000  2947.97928   0.
     9.87726  2933.53233   0.
    53.60824  2932.85261   0.
    40.63972  2936.89193   0.
    13.47285  2946.23828   0.
    37.68088  2934.75035   0.
    46.32767  2931.88185   0.
    18.64740  2941.16071   0.
    13.09413  2950.32980   0.
    18.01744  2935.92389   0.
     0.55332  2948.73049   0.
     5.35766  2947.55011   0.
    42.44669  2933.52960   0.
    57.75733  2932.24094   0.
    23.68300  2931.83870   0.
    19.94397  2947.74183   0.
    61.81887  2931.15328   0.
[...]
POINT_DATA      1414
CELL_DATA      2568
SCALARS Resistivity(ohm.m) double 1
LOOKUP_TABLE default
          1137.81828          1703.80743          2162.66599          1095.39856           493.11961          2188.65235          1361.48609          1527.20559          1629.61958          1973.25097           775.34766          1943.10775           631.24163          2375.73664          2324.32959          1848.08063          1544.12214           482.83564           435.18966          2480.20249          1261.37432          1845.77893          1247.80522           638.75796          1837.34270           443.84206           272.64030          2166.53319          2230.19133          2129.96845           453.13491           448.43299          1625.16757           392.10800           396.75458          1726.16698           710.95217           941.25106          1205.53092          1634.00039          1807.39752           699.05145           445.19847          2357.31592           341.80635           398.32794          2988.97459           822.97030           648.36400           908.05287          2755.06210          1835.64054          1001.24438          1547.73307          2118.72928           901.47884           376.87169          2122.28784           418.31201          1074.05587           519.44842          2160.66515           482.58676          1805.27510           277.59257          1536.79016          2096.80846          1936.53912           304.68545           702.15628           419.86983           754.58816          2065.47882           412.83061           347.98548          2938.21478          1401.79966           479.65526           357.53788          2860.21451          2768.85116          1455.38656           405.82718           394.38249          2057.39145           771.73251           349.44501          2109.91415           834.74143          1831.01094          1040.35314           362.62985          2164.29520           396.69878          1818.33736          2005.15877           583.54201          1204.54670          2215.33399           991.08940          1512.77043           515.43527           612.00910           722.78703          1068.44930          1668.67671           473.79890           931.53444          2046.44548          1284.93613           425.53470          1123.62492          2564.90614          1747.27139          2033.48072          1285.72101          1025.70446          1476.38290           426.93408           334.57379          2357.61032          1367.66786          3011.22018           723.60693           556.93326          2046.45988          2449.51578          3195.04931          1766.90430          1475.27974          2003.53806          1083.63252          1208.26535          2321.78367           819.19979          2849.76765           420.98851          1634.28545           994.44115          1336.21480          1559.88372           482.36368           588.34649          1385.18881          1616.40784           541.60639           417.88003          1440.41403          1918.80281           512.61933          2118.63276          1902.58491           917.56103           690.09544          2362.29819           313.17114          1600.29817           409.97357          2247.52085          1253.09930          1153.88699           474.93838          2346.79405           429.58458          2090.57037           544.16443          1519.91953          1805.30138          1909.01548          1689.67926           714.06891           765.44768           673.01529           289.50572           391.31633           899.12881           788.51180          3456.26758          2683.96081          1113.38584          2288.09611          1404.44201          1946.06735           718.60158           526.25125           952.25022           845.86275           620.45508           840.08279          2545.06554          1191.87088          2490.92839           563.34644          2730.02595           283.70416           476.21634          2686.43151          1992.90561          1213.05057           398.79529           309.88035           789.10499          1738.18723          1408.19062          1780.17692          1031.10607          3733.17311          2118.65967           380.63172          2086.25323          1285.22187           579.88516           397.41074           358.82626           585.14616          1171.24279          2388.89178           422.34776          1223.48068           481.25949           837.61641          1305.17868          1090.57476           372.65891           633.42213           616.70061           414.01592           517.71215          1267.68501           330.63910          1020.93730          1966.39515          1380.13699          2955.69898          2480.94485          1630.78907          2541.85892          1412.75736          1371.51751          1337.59823          2654.47106           659.39880           944.26767           411.96856          2553.73615           289.18619          1806.68550           441.39772           483.92406          2026.65559           276.98437          1944.66595          1675.57702           651.07797          1967.39001           955.91862           664.02449           689.28584           689.74865          2902.20097           591.91855          2070.08924           521.17428           427.11026           414.63537          1598.60288           380.47871          2188.76769           885.26180          2137.33931           963.92244          1991.76004          2447.13677          2209.28663           406.52306          1574.72978          2069.22539           428.06230           688.79929           667.43133           446.21241          1354.10625           301.04824           920.06580           889.75980          2190.84189           441.49059          2532.67861           626.27312           503.60747           898.41721           335.48341          2376.68963           632.81766          1911.14364          2294.93745          1405.00540           494.18890           441.13281           609.67121           992.13405           409.41447          2647.64493          2581.18943           420.28544          1799.32797          1282.69427          1487.44067          1935.53653           420.00785           658.58238           603.19925           303.19767          2243.90389           762.45305           365.89474           453.66075          1128.08627          2783.82721           405.15783          3231.04235           384.98913           990.57560           480.82631           500.63191          1181.92286           421.00833          1362.27853          1031.88745          2871.64749          1720.65188          2104.78550           491.56469          1541.27689           345.87402           381.13729           554.44130           586.81504          3131.03884           551.04382          2169.93310           456.24890          2068.89440           487.51677           540.14207          1774.92433          1178.29524          1139.53063           423.30301          2175.32828           492.18541          2501.77912           750.45368           412.39064           429.90524          2075.74460           451.42334          1543.94317           322.88564           379.04339           795.79035          1480.94673           880.11111           509.31040          1318.42384           489.04772           394.96871          2319.99231          1712.19860          2670.47614           448.43742          1273.67933          1373.46189           976.76329           301.98508          2694.10315           390.27297           428.78063           450.03630          2016.00734          1329.62970           472.92473          1755.73204          2491.68120           284.82176          1312.84070           560.50212          1334.48177           409.12472          1477.08056           678.54043           335.18541          1392.90642          1458.26373           468.37612           790.40776           552.82736          1354.11666          1695.88835           995.10569           567.67830           602.83499          1320.76071          1415.40209          1291.14475           843.89342           475.34299           919.12340          2238.76058          1603.00582          1472.56586          2215.22187           984.36805           661.57578          1142.83562          2641.93199           678.73196           914.77224           697.22595          1689.90414           955.05479           368.45528          2220.81520          1395.97885          1264.38753           291.60789          1643.61702           570.78225          1364.18254           519.79264          1309.52616           509.18169           467.88702          1914.59266          1027.29033          1431.76613          1467.68284           657.51531          1876.73348          1314.55119          3448.65300           618.92663          1163.65842          2014.35774          1131.19859          1074.23029          1261.87364          1192.04692          4073.03909           824.43068          3249.49439          1527.51761          1489.64008          1211.28596          1677.21988           811.91385          2172.55942           895.70150          1340.58363           459.69053          1848.29368          1304.99470           856.12568          1314.40170          2076.40039           804.53380           838.52422          1165.23040          1730.79006          1612.49127           786.83885          1770.69793           867.33556           293.60886          1866.80132          3787.82657          1032.75871           411.69972          1487.55488           717.80481          1069.91748          1901.95265           471.36144           573.65712          2033.75028          2860.40293          1242.19588           395.19262           683.19045           768.09732          1260.43423          1122.74760          1053.82228          1480.17428           771.06815          1430.83705           739.39003          1053.01834          2560.45819          1763.25257           674.04629           358.59609           598.51527          1261.12184           753.35320          1210.18074          3596.95303          1244.70910           354.17065           444.10039          1251.70086          1193.65326           866.63005           396.30027          3146.02318          1367.76350           363.35445          3282.86448          2320.16681           432.68310          1373.13360          1231.66887          1066.70925          1174.96121          1069.81666           522.62458          1574.66098          1403.97626          1423.38480          1291.44846           667.30922          1704.21432           477.30567          1210.75898           557.93699           450.20180           692.95575          1668.28370          1102.50516           909.75513           464.47976           389.75089          1653.74228          1144.05642          4048.90916          4374.47755          3368.23057          2134.48921          2103.33571          2124.06454          3627.29680          5053.10483           606.41166          4693.52175           489.56632          1132.50777          1462.08393           663.54150          3738.97100          5007.25686          1240.83588           469.28167          1984.33350          2828.65011           782.81849           821.87935          1478.65599          4202.26867          1386.15073          2372.57423           959.12689           621.53150          1470.28379          1573.08303           424.21913          3345.66542           488.24032          1369.23119          5345.48341          3859.44977          1749.01084          4975.14259           309.78560           807.26299           457.28858          1933.38055          2903.44500          1966.55880          3152.71004          1759.01883          2790.67667           776.18164          1562.36773          1428.98770          1830.91192          8317.53446          3540.21269           931.32257          4559.85461          4131.35795           851.51964           661.72162          5064.77062          2882.04670          4222.57382          4877.92355          1439.23214           899.82201           611.81011           544.17892           864.64362          4416.87587          1825.69615          1059.10530          1708.17620           352.13847          1129.63241          1791.47833          3669.95659          1066.35701           877.71396           717.15971           868.26752          1562.70596          1426.08864           878.93106          3153.11979          2811.95870          3268.88811          3267.85894          5497.51114          4262.81226          2656.99634           584.09369          4360.37191          1292.16887          1787.31898           653.89081          1421.15494           954.00701           400.34706          6067.48591          5359.27459          1610.10457          1534.54407          2936.48656          2220.58279          3011.77786          2816.37955           954.26266          1145.93168           602.28606           793.55399           411.86205           488.07316           758.41307           634.40500          1958.31412          4353.22125          3491.43235          1652.43345          2228.44269          1388.71688          1616.27505          7792.82551          4941.66158          1919.41050           411.59505           560.97722          5101.85977           659.74420          3777.92265          4435.01279          1103.33713          2248.93637           717.58524           937.26634          1112.33559          2269.78993          2350.26877          2597.79710           661.76635           535.85578          1214.58014           368.47822           596.30864           460.86427          3395.65394          5238.09849           422.73813          3052.02122           813.41058          2762.72274          1274.18546           663.94248           664.18468           727.58445           670.95285          1917.05672           771.55724          1439.85283           697.76457          2609.19514          1849.51421          4157.91414          2755.31093           700.60155           587.00653           347.85798          3029.28885           748.53837           758.67567          1328.09083          2683.72530           695.92495           809.67019           516.99810          1313.28650          1044.36936          1622.14923          1511.51581           642.14813           794.26852           713.18220          2858.66017          2068.95368          1175.76143          7412.66971          1099.99109           868.31662           947.10563          1424.99722          2644.73270          1640.42814          1500.64096          1463.44539          2719.62398           622.22756          7160.54093          1459.34670          2905.10651           799.62342          1223.97833          4095.91642          2785.50806           803.36130          1159.57031          3233.87679           402.50482           459.48128          1217.63495          2839.54077          5594.28922          1513.55456          6823.07074          1312.42625          1716.90155          1641.12378          1244.70175           457.29387           787.00089          2828.19106           693.04124          4108.45135           655.37825          3278.27921           759.65202           730.38661          1410.15035          2017.54706          2943.67399          4972.19336          2864.05173          1515.11188          1827.04174          1333.03257          5182.33956          7275.66364          1949.27552          1053.63125          2815.06868           647.48654          1187.96598           853.19937          2764.91728          1202.88342           992.49304           564.74613           645.47219          3789.80907          1034.97028           741.65253          6025.58429          3795.09090          2224.28113          1319.71732          7850.23046           783.52259          2445.56146          3112.61710          2140.24681          1131.38693          2988.53742          5309.20296          1764.70709           444.03222           719.67583           889.06105          1915.87071          1865.70764           698.39758           702.48302          6371.40530           820.13169          1178.76564          1867.79074          3818.76881          5259.15023           492.32446          1328.20866           908.50954          1059.99761          2022.76107           784.91765           883.06283          1524.44700           797.34201           625.43332           436.16903           778.32258          3051.50120           477.73140          3041.38708          1698.56580          2022.12942          1351.40049          1720.26194          1667.46025           439.95836          3856.28218          1530.41964          1897.84037          1801.47580          2243.55273          5568.30344           906.35558          5079.03806           510.80834           667.02409          1623.45783          1215.23035          7315.10097          2824.58745           861.26975          1665.17406          3976.77244          3318.02379           593.54863          5195.76116          1562.59352          2675.88010          1091.01514          3359.30861          3816.38694           460.77963          3375.13083          3861.83495          2558.63312          5608.81290           825.58175           781.12226          1207.78708          2214.16724           397.62814          9323.93529          3921.64843           613.95177          1618.01090          1597.54986          2235.73784           759.02609          1198.56554         13410.09864           712.19127          2305.60387          1285.30956           418.46961           835.18109          2446.13464          5486.72032          5931.78302          1522.49108          2700.42761          2576.80777          4428.95455           767.11762          1357.74143          2196.18959          1807.39435          5422.12955           623.62684          1205.59220          2770.97726           869.44220          3683.60588          2250.39808          6448.97540          2686.21981          1261.81435          1150.78243           653.62902          5370.47233          6939.05789          2002.32849           267.21212           389.04210           845.82462           781.11613          6147.72952          1412.25238          2060.80493          3116.03226          2463.83375          5648.46903          5762.06757           373.44412           560.38157           823.89071          1279.75136           620.71318          4227.88429          3865.72886          1452.83967           698.12152          1096.43348          2138.40441          3742.70775          2267.61946          2021.86722           896.98654          4003.21322          7420.81909           394.47354           702.25318          1752.83602          7256.08259          1853.24869          2948.71216          4807.40513           736.82588          1825.82258          4512.86100           522.33551          1590.38517          1056.47400          5900.39749           959.62005          1795.09540          2866.96976          5328.12419          5156.80945          5723.11675          4629.10823          4281.56911          1689.11884           937.37341          3405.96182         10142.64804           653.06445          2433.70303          2578.28420           293.70049          2447.14436          3494.05863          2589.51012           439.48479          4388.60356           814.55848          3282.63265          4314.55564          1835.47247           746.93843          2918.79668          3402.25997          5325.52310          6066.57128          5140.90752           631.38968           679.81711          1241.11350          5027.05176          1065.11312          2671.40138           870.49770           629.649