# vtk DataFile Version 3.0
Output from R2
ASCII
DATASET UNSTRUCTURED_GRID
POINTS       1414 double
     0.00000  2968.10000   0.
     1.54000  2966.60000   0.
     3.08000  2964.90000   0.
     4.61000  2964.10000   0.
     6.15000  2963.30000   0.
     7.69000  2962.60000   0.
     9.23000  2961.50000   0.
    10.76000  2960.70000   0.
    12.30000  2960.00000   0.
    13.84000  2959.30000   0.
    15.38000  2958.70000   0.
    16.91000  2958.10000   0.
    18.45000  2957.30000   0.
    19.99000  2956.60000   0.
    21.52000  2955.80000   0.
    23.06000  2955.00000   0.
    24.60000  2954.30000   0.
    26.14000  2953.50000   0.
    27.68000  2952.80000   0.
    29.21000  2951.90000   0.
    30.75000  2951.10000   0.
    32.29000  2950.20000   0.
    33.83000  2949.50000   0.
    35.36000  2948.70000   0.
    36.90000  2948.10000   0.
    38.44000  2947.30000   0.
    39.98000  2946.70000   0.
    41.51000  2946.10000   0.
    43.05000  2945.50000   0.
    44.59000  2945.10000   0.
    46.13000  2944.50000   0.
    47.66000  2944.10000   0.
    49.20000  2943.60000   0.
    50.74000  2943.40000   0.
    52.28000  2943.00000   0.
    53.81000  2942.50000   0.
    55.35000  2942.10000   0.
    56.89000  2941.60000   0.
    58.43000  2941.00000   0.
    59.96000  2940.60000   0.
    61.50000  2940.10000   0.
    63.04000  2939.50000   0.
    64.58000  2939.10000   0.
    66.11000  2939.20000   0.
    67.65000  2939.20000   0.
    69.19000  2939.10000   0.
    70.73000  2938.90000   0.
    72.26000  2938.60000   0.
    73.80000  2938.30000   0.
    75.34000  2938.50000   0.
    76.88000  2938.70000   0.
    78.41000  2938.60000   0.
    79.95000  2938.80000   0.
    81.49000  2938.90000   0.
    83.03000  2939.10000   0.
    84.56000  2939.10000   0.
     3.42000  2957.55000   0.
     8.97000  2954.51000   0.
    14.52000  2951.86000   0.
    20.07000  2949.38000   0.
    25.63000  2946.59000   0.
    31.18000  2943.67000   0.
    36.73000  2940.99000   0.
    42.28000  2938.62000   0.
    47.83000  2936.87000   0.
    53.39000  2935.46000   0.
    58.94000  2933.69000   0.
    64.49000  2931.95000   0.
    70.04000  2931.81000   0.
    75.60000  2931.36000   0.
    81.15000  2931.70000   0.
     0.51333  2967.60000   0.
     1.02667  2967.10000   0.
     2.05333  2966.03333   0.
     2.56667  2965.46667   0.
     3.59000  2964.63333   0.
     4.10000  2964.36667   0.
     5.12333  2963.83333   0.
     5.63667  2963.56667   0.
     6.66333  2963.06667   0.
     7.17667  2962.83333   0.
     8.20333  2962.23333   0.
     8.71667  2961.86667   0.
     9.74000  2961.23333   0.
    10.25000  2960.96667   0.
    11.27333  2960.46667   0.
    11.78667  2960.23333   0.
    12.81333  2959.76667   0.
    13.32667  2959.53333   0.
    14.35333  2959.10000   0.
    14.86667  2958.90000   0.
    15.89000  2958.50000   0.
    16.40000  2958.30000   0.
    17.42333  2957.83333   0.
    17.93667  2957.56667   0.
    18.96333  2957.06667   0.
    19.47667  2956.83333   0.
    20.50000  2956.33333   0.
    21.01000  2956.06667   0.
    22.03333  2955.53333   0.
    22.54667  2955.26667   0.
    23.57333  2954.76667   0.
    24.08667  2954.53333   0.
    25.11333  2954.03333   0.
    25.62667  2953.76667   0.
    26.65333  2953.26667   0.
    27.16667  2953.03333   0.
    28.19000  2952.50000   0.
    28.70000  2952.20000   0.
    29.72333  2951.63333   0.
    30.23667  2951.36667   0.
    31.26333  2950.80000   0.
    31.77667  2950.50000   0.
    32.80333  2949.96667   0.
    33.31667  2949.73333   0.
    34.34000  2949.23333   0.
    34.85000  2948.96667   0.
    35.87333  2948.50000   0.
    36.38667  2948.30000   0.
    37.41333  2947.83333   0.
    37.92667  2947.56667   0.
    38.95333  2947.10000   0.
    39.46667  2946.90000   0.
    40.49000  2946.50000   0.
    41.00000  2946.30000   0.
    42.02333  2945.90000   0.
    42.53667  2945.70000   0.
    43.56333  2945.36667   0.
    44.07667  2945.23333   0.
    45.10333  2944.90000   0.
    45.61667  2944.70000   0.
    46.64000  2944.36667   0.
    47.15000  2944.23333   0.
    48.17333  2943.93333   0.
    48.68667  2943.76667   0.
    49.71333  2943.53333   0.
    50.22667  2943.46667   0.
    51.25333  2943.26667   0.
    51.76667  2943.13333   0.
    52.79000  2942.83333   0.
    53.30000  2942.66667   0.
    54.32333  2942.36667   0.
    54.83667  2942.23333   0.
    55.86333  2941.93333   0.
    56.37667  2941.76667   0.
    57.40333  2941.40000   0.
    57.91667  2941.20000   0.
    58.94000  2940.86667   0.
    59.45000  2940.73333   0.
    60.47333  2940.43333   0.
    60.98667  2940.26667   0.
    62.01333  2939.90000   0.
    62.52667  2939.70000   0.
    63.55333  2939.36667   0.
    64.06667  2939.23333   0.
    65.34500  2939.15000   0.
    66.88000  2939.20000   0.
    68.42000  2939.15000   0.
    69.70333  2939.03333   0.
    70.21667  2938.96667   0.
    71.24000  2938.80000   0.
    71.75000  2938.70000   0.
    72.77333  2938.50000   0.
    73.28667  2938.40000   0.
    74.31333  2938.36667   0.
    74.82667  2938.43333   0.
    75.85333  2938.56667   0.
    76.36667  2938.63333   0.
    77.64500  2938.65000   0.
    78.92333  2938.66667   0.
    79.43667  2938.73333   0.
    80.72000  2938.85000   0.
    82.00333  2938.96667   0.
    82.51667  2939.03333   0.
    83.79500  2939.10000   0.
     0.08400  2959.57200   0.
     1.19600  2958.89800   0.
     2.30800  2958.22400   0.
     4.53000  2956.94200   0.
     5.64000  2956.33400   0.
     6.75000  2955.72600   0.
     7.86000  2955.11800   0.
    10.35750  2953.84750   0.
    11.74500  2953.18500   0.
    13.13250  2952.52250   0.
    15.90750  2951.24000   0.
    17.29500  2950.62000   0.
    18.68250  2950.00000   0.
    21.18200  2948.82200   0.
    22.29400  2948.26400   0.
    23.40600  2947.70600   0.
    24.51800  2947.14800   0.
    26.74000  2946.00600   0.
    27.85000  2945.42200   0.
    28.96000  2944.83800   0.
    30.07000  2944.25400   0.
    32.56750  2943.00000   0.
    33.95500  2942.33000   0.
    35.34250  2941.66000   0.
    38.11750  2940.39750   0.
    39.50500  2939.80500   0.
    40.89250  2939.21250   0.
    43.66750  2938.18250   0.
    45.05500  2937.74500   0.
    46.44250  2937.30750   0.
    49.22000  2936.51750   0.
    50.61000  2936.16500   0.
    52.00000  2935.81250   0.
    54.77750  2935.01750   0.
    56.16500  2934.57500   0.
    57.55250  2934.13250   0.
    60.32750  2933.25500   0.
    61.71500  2932.82000   0.
    63.10250  2932.38500   0.
    65.87750  2931.91500   0.
    67.26500  2931.88000   0.
    68.65250  2931.84500   0.
    71.43000  2931.69750   0.
    72.82000  2931.58500   0.
    74.21000  2931.47250   0.
    76.98750  2931.44500   0.
    78.37500  2931.53000   0.
    79.76250  2931.61500   0.
    82.53750  2931.75500   0.
    83.92500  2931.81000   0.
     6.60134  2937.05984   0.
    20.80435  2932.52560   0.
     3.78758  2946.36592   0.
    15.48523  2940.98228   0.
    29.30091  2934.50364   0.
    23.90594  2939.46561   0.
    40.87322  2931.62711   0.
     1.03219  2951.87344   0.
    10.83406  2946.32292   0.
    20.42668  2943.42459   0.
    48.80952  2930.83467   0.
    35.50309  2935.49258   0.
     7.54365  2949.73854   0.
    28.57967  2939.84283   0.
    15.90963  2945.83181   0.
    44.30452  2933.27820   0.
    -0.12722  2955.42655   0.
    24.47411  2943.04615   0.
     4.45051  2952.86019   0.
    40.01017  2935.22543   0.
    52.75593  2931.58993   0.
    13.75183  2934.27842   0.
    32.31862  2938.44653   0.
     0.40990  2931.04902   0.
    19.20708  2946.27332   0.
    57.19103  2930.55709   0.
    -0.97178  2947.27328   0.
    19.39705  2939.49643   0.
    11.08068  2950.12444   0.
    32.86215  2930.47012   0.
     7.41320  2941.82707   0.
    13.76382  2948.77946   0.
    27.17579  2942.79365   0.
     7.27112  2952.68663   0.
     2.71547  2954.94653   0.
    22.91159  2945.17994   0.
     2.00816  2941.86911   0.
    24.73355  2934.79062   0.
    47.86753  2934.00196   0.
    50.62083  2933.29089   0.
    60.15732  2930.28185   0.
    37.65425  2937.53830   0.
    44.64836  2929.77041   0.
    10.93416  2939.02064   0.
     4.26476  2949.76242   0.
    36.78915  2931.78219   0.
     7.36345  2946.13476   0.
    30.92470  2941.06806   0.
     6.19921  2931.10091   0.
    35.16618  2938.51604   0.
    16.36294  2929.87801   0.
    13.43632  2943.77014   0.
    42.64967  2935.50406   0.
    26.89596  2931.23775   0.
     1.59760  2936.73753   0.
    17.19200  2948.13905   0.
    -0.61497  2957.60981   0.
    26.49360  2937.36117   0.
     9.56799  2951.50953   0.
    17.55858  2943.77119   0.
    55.26825  2932.33039   0.
    22.03247  2936.46128   0.
    16.10828  2937.24515   0.
    22.48452  2941.40733   0.
    20.86327  2946.43955   0.
    29.71126  2937.35408   0.
    32.14062  2935.59882   0.
    45.26358  2935.44707   0.
    29.19256  2942.39482   0.
    25.22337  2944.48902   0.
    25.77440  2940.40763   0.
     5.12787  2951.33100   0.
     9.72036  2943.07255   0.
     0.63027  2944.64860   0.
     5.15669  2954.13690   0.
    33.80274  2940.56791   0.
     1.57076  2956.41210   0.
     9.31000  2947.97928   0.
     9.87726  2933.53233   0.
    53.60824  2932.85261   0.
    40.63972  2936.89193   0.
    13.47285  2946.23828   0.
    37.68088  2934.75035   0.
    46.32767  2931.88185   0.
    18.64740  2941.16071   0.
    13.09413  2950.32980   0.
    18.01744  2935.92389   0.
     0.55332  2948.73049   0.
     5.35766  2947.55011   0.
    42.44669  2933.52960   0.
    57.75733  2932.24094   0.
    23.68300  2931.83870   0.
    19.94397  2947.74183   0.
    61.81887  2931.15328   0.
[...]
POINT_DATA      1414
CELL_DATA      2568
SCALARS Resistivity(ohm.m) double 1
LOOKUP_TABLE default
          1136.63922          1801.36067          2309.62739          1080.13568           507.79797          2256.27575          1271.96108          1472.31539          1746.21948          2084.53538           770.23636          2039.76519           584.46775          2317.68914          2284.39989          1877.88969          1650.40934           459.13728           420.46190          2398.52771          1188.60038          1919.85163          1308.52086           562.92666          1915.50241           463.91772           298.93044          2222.83713          2240.35771          2284.09213           439.50581           477.68534          1725.40375           395.07888           385.41493          1625.09904           740.36905           894.48483          1257.14347          1503.32266          1900.59398           685.38691           407.09949          2332.15179           330.36645           414.67210          2995.39335           814.22429           606.77757           935.44617          2604.45557          1912.32360          1006.54633          1658.64062          2188.14632           842.73012           360.73243          2257.18516           412.48548          1078.55877           516.24135          2155.79137           461.09763          1853.58049           297.52542          1659.43587          2143.72001          2043.37600           307.74711           626.06126           457.67324           794.24406          2093.20715           387.69065           355.45302          2969.60075          1461.37316           447.82044           373.82891          2798.80514          2646.54405          1425.37137           392.46757           419.96109          2082.34684           691.00340           338.68581          2145.09451           874.51931          1929.59661          1011.06616           344.27799          2266.82036           394.45810          1721.76971          2044.29638           526.05207          1219.16234          2199.48729           948.83800          1597.83380           500.30193           568.50490           706.08182          1017.70734          1775.93984           485.41329           927.97192          2069.61653          1307.70225           419.01729          1114.51834          2535.85997          1836.59894          2076.22902          1388.24667          1037.97644          1579.35794           394.17460           329.68545          2334.19508          1430.81605          3056.11780           678.18564           498.41858          2096.51063          2425.97195          3321.07774          1839.57620          1393.76615          2090.82663          1066.67209          1275.01954          2269.62818           795.99931          2857.71307           413.29695          1740.86095           946.01314          1447.70820          1657.66704           478.94742           545.72418          1315.41213          1718.86272           515.34103           413.10603          1523.47456          1984.63238           472.21839          2271.07978          1965.48485           900.09695           692.16288          2302.69789           329.63972          1596.08477           400.38272          2242.12690          1333.40944          1165.81181           465.80805          2349.86210           451.56200          2219.24589           535.88025          1405.57923          1772.99323          1984.92102          1787.49355           714.77616           731.57817           620.81528           299.55554           373.65236           930.82064           711.39289          3613.13646          2670.27423          1110.10082          2271.99252          1408.88580          2029.54747           665.76981           512.22805           891.93186           768.97733           566.66686           866.93755          2478.52202          1247.15373          2413.62741           507.50298          2649.90015           297.07260           437.60957          2580.93638          2096.14452          1237.05398           372.87839           331.41452           826.75653          1816.56049          1510.41945          1770.99670           992.27377          3918.25287          2235.52421           357.57416          2228.00512          1359.46384           545.24741           375.80731           350.67681           508.01644          1184.96504          2348.40843           459.73708          1244.92548           457.19312           877.27333          1333.08511          1078.36778           365.55374           596.26765           551.03959           413.25223           468.70756          1368.36951           337.39039          1046.75441          1984.50242          1452.85247          2971.06220          2377.61914          1652.27382          2419.70745          1431.01624          1408.18189          1408.64888          2590.03027           625.24295           878.31609           383.37825          2455.28443           307.75521          1903.27195           456.08823           459.24362          2148.17251           301.85496          1994.18175          1724.18826           585.91426          2038.00949           932.47999           623.39063           623.03916           649.94629          2899.08692           557.83346          2204.33694           474.80813           392.81558           412.31786          1640.75338           366.79691          2286.68896           809.13272          2273.56084           992.29510          2085.70963          2435.50801          2228.10428           439.05440          1667.55875          2192.96515           445.52410           700.05198           642.49717           457.37908          1459.47457           312.96292           884.51896           902.17530          2314.81052           409.23405          2417.84414           590.20570           473.75089           933.49102           341.02391          2306.07876           563.34468          1986.45347          2292.97794          1453.23656           473.46387           405.46669           552.19524          1003.04320           400.44996          2502.24504          2539.74917           394.27873          1884.53382          1365.23668          1584.97143          1999.55389           413.28511           588.33194           563.43766           305.71727          2296.82593           775.48393           363.82027           477.84273          1144.15747          2772.62516           444.30883          3324.58699           374.78094           933.65239           464.78415           464.74538          1220.36380           429.32712          1473.44644           992.52916          2881.20719          1817.40448          2184.89637           444.71520          1587.30171           341.70241           363.51480           504.54163           554.47236          3214.22410           487.64326          2168.81645           439.25150          2140.86904           436.84454           509.98135          1862.15630          1186.45082          1093.85684           431.96010          2193.08044           460.30610          2450.04603           679.01998           406.70896           404.42937          2106.27658           449.10698          1602.52405           317.37897           355.70180           823.05574          1596.30508           880.57029           459.94360          1409.80220           444.98718           389.29210          2334.49846          1776.72761          2656.64198           448.31333          1364.26672          1461.63995          1003.53625           313.88259          2658.75016           375.77415           459.48379           415.99399          2056.97591          1408.13614           453.75918          1851.57848          2390.29842           313.19458          1409.10789           534.83860          1355.55115           390.27686          1513.53299           603.69835           326.64185          1500.47945          1335.63661           447.56287           799.40240           495.66805          1330.53103          1794.03898          1009.29333           542.81778           537.22489          1377.14321          1538.17960          1336.08667           782.04173           466.50580           854.91790          2278.98479          1681.70954          1530.00275          2194.44410          1006.49886           588.83070          1112.47943          2494.77292           670.91625           852.15585           668.00202          1761.16969           971.82586           349.66911          2208.93329          1429.39923          1293.29445           301.14710          1595.99539           542.15879          1458.69316           464.41877          1350.67967           463.52576           445.30938          1865.22583          1010.78428          1521.92204          1532.61327           623.42138          1947.99154          1279.41478          3644.04856           538.61998          1182.80223          1992.34762          1141.47458          1068.88208          1355.93071          1224.92638          4187.56357           755.94916          3383.87989          1604.21381          1479.37057          1197.84565          1656.07905           766.72373          2173.74911           825.37754          1366.74703           432.23952          1935.03730          1365.95577           783.47489          1319.02194          2185.37893           748.73209           855.52953          1182.20377          1668.28287          1682.46776           830.63715          1863.17631           831.30665           312.66036          1956.52950          3904.03701          1051.67808           397.52964          1516.08417           682.68926          1055.24284          1879.96526           438.20816           503.12767          2146.44457          2764.81430          1256.10453           393.03179           683.67009           725.87188          1314.88171          1140.85493          1024.52084          1600.16524           703.25572          1550.52677           677.52918          1033.47551          2548.71175          1853.61540           648.93857           362.46304           562.69932          1284.73238           696.06551          1224.65003          3650.53368          1281.44623           338.50093           419.52210          1269.38992          1205.11086           841.19549           368.81038          3190.32333          1486.58282           344.23158          3312.95267          2270.48132           424.83356          1423.07389          1273.13691          1040.34328          1191.52397          1046.59557           470.58284          1605.36425          1518.96270          1536.38576          1285.57646           607.29183          1743.47403           462.39041          1210.72103           499.58187           434.92534           634.46284          1755.97358          1089.89246           838.13394           453.13124           364.77045          1747.13574          1142.91974          4339.18802          4756.72620          3667.25070          2141.16628          2011.46045          2069.95394          3516.49895          5100.00529           585.26808          4650.05356           420.83577          1125.98009          1613.68632           544.80030          4061.17561          4839.76696          1344.50735           448.59200          1994.09800          2787.78520           805.58121           802.04875          1413.05448          4779.39783          1181.00973          2482.65292           931.14697           502.15557          1676.90566          1507.15806           403.01734          3586.85651           524.90027          1356.71785          5304.53859          4412.71467          1734.52466          5580.87248           351.07042           836.33557           476.45077          1836.23150          2773.00902          1725.60319          2766.91758          1760.58434          2689.91317           790.05590          1657.03417          1279.90017          1796.96107          8262.04775          3865.32248           955.69326          5149.88010          3500.16475           849.62870           706.13591          4785.92495          2864.26376          4848.40975          5411.34358          1413.70038           832.09988           665.93524           453.06283           803.77686          4336.07022          1604.06534          1034.09324          1555.03844           388.39591          1148.83089          1761.48925          3931.01576           890.21588           865.95921           693.55632           753.74356          1628.55101          1422.75110           726.51955          3435.97978          2866.76199          3434.61687          3295.30186          6225.80812          3886.57577          2632.68022           546.87436          4531.10236          1206.93887          1567.54018           656.80115          1368.96595           849.96244           415.24768          6509.39670          5100.51736          1468.52729          1541.36863          2876.09964          2225.43536          3127.66670          3279.19792           900.29092          1185.18394           614.14442           847.01283           371.72099           536.00790           738.87287           527.51975          1945.95012          3822.53712          3397.48401          1442.22742          2063.10207          1388.43875          1561.75731          7847.26397          5097.90975          1805.35183           392.29377           568.95918          4995.35433           702.35150          3902.34333          4500.89248          1117.01071          2365.12301           654.60025           901.24477          1137.52755          2318.48125          2384.88669          2676.13047           578.70940           466.28989          1280.47268           417.97418           631.46390           419.78949          3815.22564          5123.37736           414.16256          3055.98999           826.75170          2688.19583          1415.34582           676.86388           609.16685           713.43062           608.92936          1872.73672           710.25268          1407.87193           677.02770          2600.96697          1738.89296          3236.88490          2869.99431           561.31441           628.46629           396.04856          3040.91875           692.25055           688.29173          1250.14295          2691.56801           756.89558           833.55663           558.98953          1232.41827           941.81684          1470.91700          1330.89563           588.07313           845.27037           759.82239          2716.90209          1973.36940          1280.36611          7400.05398          1117.67025           806.38487           887.07624          1383.48693          2330.82805          1481.28472          1570.09867          1478.30773          2790.57540           690.30613          7034.53618          1267.63161          2786.60430           771.86331          1279.56892          3676.48949          2910.95604           773.78592          1069.58964          3586.06669           468.89166           611.50889          1281.45712          2943.83800          5500.35516          1558.49269          7013.88371          1181.19668          1647.04116          1467.57435          1373.64015           463.68777           892.83481          2837.18047           690.84768          4152.00764           560.95884          3006.52793           726.21784           649.71937          1429.32403          2124.52626          3025.13034          5058.97422          2790.30319          1688.47857          1756.01190          1504.80743          5984.05313          7097.04890          1868.14128           981.78846          2899.68933           595.19399          1252.33154           879.72056          2637.02262          1287.97807          1109.41178           603.67438           581.81033          3810.80188           930.02082           768.82605          6444.03191          3812.71301          2605.97735          1330.67178          6821.29735           833.94542          2437.80914          2455.90807          2177.52548          1017.22990          3069.83385          5260.25705          1706.24644           431.15581           763.67329           854.32933          1671.66686          1733.86335           632.39834           747.30664          5875.36041           798.60952          1112.75609          2019.93599          4285.47132          4695.45097           404.67092          1317.82033           850.45602          1056.59584          1776.89044           717.12564           809.71375          1403.21141           788.23379           523.49038           367.62443           843.25451          3056.87574           488.62800          3023.00379          1651.08091          1935.18676          1355.93548          1832.93781          1512.61846           382.86185          3683.86631          1404.09851          1821.01368          1859.50660          2131.56636          4842.36248           933.66023          5730.59644           699.96564           723.48060          1584.76367          1323.58736          7344.40621          2668.45557           868.26691          1718.72606          4005.61500          3617.43625           678.56513          4513.20931          1431.51725          3125.26832          1079.18508          3529.34783          3866.86352           501.13173          3350.03454          4041.56737          2465.71452          5237.66434           844.96721           823.08941          1309.64995          2351.09046           428.33124          8377.22875          3748.13040           705.26810          1748.84969          1624.80839          2047.29001           798.49453          1259.91709         11095.33135           675.58203          2450.45457          1286.92244           467.21694           792.12906          2451.21821          5421.26761          5881.03485          1370.38897          2858.24210          2601.84320          4622.76040           833.00753          1395.96893          2008.56179          1695.78319          5173.64548           614.59701          1300.15678          2744.41915           810.97321          3920.64787          2262.38823          6962.49939          2060.22682           979.48460          1283.79379           586.16669          4950.88076          7321.02112          1765.68214           302.99423           360.35166           781.09170           835.58588          6283.67757          1557.77904          2179.60375          3285.32834          2574.31898          5712.36319          5615.18437           385.90976           762.00671           758.60319          1184.06549           650.40977          4144.35036          3791.71749          1300.30684           666.11759          1078.98840          2162.24951          3764.03948          2426.23151          2016.90089           807.48981          4458.73388          7356.76950           446.90097           674.93833          1665.29101          7610.42176          1804.15025          3180.08173          4814.10490           695.62909          1670.39619          4553.88893           607.96892          1412.42912           923.43450          5122.26178           873.86984          1669.68988          3041.46890          5702.77356          4092.15744          6174.01952          4557.29281          4384.60142          1959.68034           830.53019          3411.45381          9283.65251           542.65719          2478.37882          2642.62781           332.48027          2449.89374          3318.60258          2533.18550           500.44243          4042.27183           810.40174          3611.25636          4336.06531          1876.63314           861.53461          3043.75730          3314.29542          5066.53885          6013.10735          5676.53682           691.56402           608.08222          1181.34115          4604.54457          1126.40198          2992.58471           782.00053           655.548