# vtk DataFile Version 3.0
Output from R2
ASCII
DATASET UNSTRUCTURED_GRID
POINTS       1414 double
     0.00000  2968.10000   0.
     1.54000  2966.60000   0.
     3.08000  2964.90000   0.
     4.61000  2964.10000   0.
     6.15000  2963.30000   0.
     7.69000  2962.60000   0.
     9.23000  2961.50000   0.
    10.76000  2960.70000   0.
    12.30000  2960.00000   0.
    13.84000  2959.30000   0.
    15.38000  2958.70000   0.
    16.91000  2958.10000   0.
    18.45000  2957.30000   0.
    19.99000  2956.60000   0.
    21.52000  2955.80000   0.
    23.06000  2955.00000   0.
    24.60000  2954.30000   0.
    26.14000  2953.50000   0.
    27.68000  2952.80000   0.
    29.21000  2951.90000   0.
    30.75000  2951.10000   0.
    32.29000  2950.20000   0.
    33.83000  2949.50000   0.
    35.36000  2948.70000   0.
    36.90000  2948.10000   0.
    38.44000  2947.30000   0.
    39.98000  2946.70000   0.
    41.51000  2946.10000   0.
    43.05000  2945.50000   0.
    44.59000  2945.10000   0.
    46.13000  2944.50000   0.
    47.66000  2944.10000   0.
    49.20000  2943.60000   0.
    50.74000  2943.40000   0.
    52.28000  2943.00000   0.
    53.81000  2942.50000   0.
    55.35000  2942.10000   0.
    56.89000  2941.60000   0.
    58.43000  2941.00000   0.
    59.96000  2940.60000   0.
    61.50000  2940.10000   0.
    63.04000  2939.50000   0.
    64.58000  2939.10000   0.
    66.11000  2939.20000   0.
    67.65000  2939.20000   0.
    69.19000  2939.10000   0.
    70.73000  2938.90000   0.
    72.26000  2938.60000   0.
    73.80000  2938.30000   0.
    75.34000  2938.50000   0.
    76.88000  2938.70000   0.
    78.41000  2938.60000   0.
    79.95000  2938.80000   0.
    81.49000  2938.90000   0.
    83.03000  2939.10000   0.
    84.56000  2939.10000   0.
     3.42000  2957.55000   0.
     8.97000  2954.51000   0.
    14.52000  2951.86000   0.
    20.07000  2949.38000   0.
    25.63000  2946.59000   0.
    31.18000  2943.67000   0.
    36.73000  2940.99000   0.
    42.28000  2938.62000   0.
    47.83000  2936.87000   0.
    53.39000  2935.46000   0.
    58.94000  2933.69000   0.
    64.49000  2931.95000   0.
    70.04000  2931.81000   0.
    75.60000  2931.36000   0.
    81.15000  2931.70000   0.
     0.51333  2967.60000   0.
     1.02667  2967.10000   0.
     2.05333  2966.03333   0.
     2.56667  2965.46667   0.
     3.59000  2964.63333   0.
     4.10000  2964.36667   0.
     5.12333  2963.83333   0.
     5.63667  2963.56667   0.
     6.66333  2963.06667   0.
     7.17667  2962.83333   0.
     8.20333  2962.23333   0.
     8.71667  2961.86667   0.
     9.74000  2961.23333   0.
    10.25000  2960.96667   0.
    11.27333  2960.46667   0.
    11.78667  2960.23333   0.
    12.81333  2959.76667   0.
    13.32667  2959.53333   0.
    14.35333  2959.10000   0.
    14.86667  2958.90000   0.
    15.89000  2958.50000   0.
    16.40000  2958.30000   0.
    17.42333  2957.83333   0.
    17.93667  2957.56667   0.
    18.96333  2957.06667   0.
    19.47667  2956.83333   0.
    20.50000  2956.33333   0.
    21.01000  2956.06667   0.
    22.03333  2955.53333   0.
    22.54667  2955.26667   0.
    23.57333  2954.76667   0.
    24.08667  2954.53333   0.
    25.11333  2954.03333   0.
    25.62667  2953.76667   0.
    26.65333  2953.26667   0.
    27.16667  2953.03333   0.
    28.19000  2952.50000   0.
    28.70000  2952.20000   0.
    29.72333  2951.63333   0.
    30.23667  2951.36667   0.
    31.26333  2950.80000   0.
    31.77667  2950.50000   0.
    32.80333  2949.96667   0.
    33.31667  2949.73333   0.
    34.34000  2949.23333   0.
    34.85000  2948.96667   0.
    35.87333  2948.50000   0.
    36.38667  2948.30000   0.
    37.41333  2947.83333   0.
    37.92667  2947.56667   0.
    38.95333  2947.10000   0.
    39.46667  2946.90000   0.
    40.49000  2946.50000   0.
    41.00000  2946.30000   0.
    42.02333  2945.90000   0.
    42.53667  2945.70000   0.
    43.56333  2945.36667   0.
    44.07667  2945.23333   0.
    45.10333  2944.90000   0.
    45.61667  2944.70000   0.
    46.64000  2944.36667   0.
    47.15000  2944.23333   0.
    48.17333  2943.93333   0.
    48.68667  2943.76667   0.
    49.71333  2943.53333   0.
    50.22667  2943.46667   0.
    51.25333  2943.26667   0.
    51.76667  2943.13333   0.
    52.79000  2942.83333   0.
    53.30000  2942.66667   0.
    54.32333  2942.36667   0.
    54.83667  2942.23333   0.
    55.86333  2941.93333   0.
    56.37667  2941.76667   0.
    57.40333  2941.40000   0.
    57.91667  2941.20000   0.
    58.94000  2940.86667   0.
    59.45000  2940.73333   0.
    60.47333  2940.43333   0.
    60.98667  2940.26667   0.
    62.01333  2939.90000   0.
    62.52667  2939.70000   0.
    63.55333  2939.36667   0.
    64.06667  2939.23333   0.
    65.34500  2939.15000   0.
    66.88000  2939.20000   0.
    68.42000  2939.15000   0.
    69.70333  2939.03333   0.
    70.21667  2938.96667   0.
    71.24000  2938.80000   0.
    71.75000  2938.70000   0.
    72.77333  2938.50000   0.
    73.28667  2938.40000   0.
    74.31333  2938.36667   0.
    74.82667  2938.43333   0.
    75.85333  2938.56667   0.
    76.36667  2938.63333   0.
    77.64500  2938.65000   0.
    78.92333  2938.66667   0.
    79.43667  2938.73333   0.
    80.72000  2938.85000   0.
    82.00333  2938.96667   0.
    82.51667  2939.03333   0.
    83.79500  2939.10000   0.
     0.08400  2959.57200   0.
     1.19600  2958.89800   0.
     2.30800  2958.22400   0.
     4.53000  2956.94200   0.
     5.64000  2956.33400   0.
     6.75000  2955.72600   0.
     7.86000  2955.11800   0.
    10.35750  2953.84750   0.
    11.74500  2953.18500   0.
    13.13250  2952.52250   0.
    15.90750  2951.24000   0.
    17.29500  2950.62000   0.
    18.68250  2950.00000   0.
    21.18200  2948.82200   0.
    22.29400  2948.26400   0.
    23.40600  2947.70600   0.
    24.51800  2947.14800   0.
    26.74000  2946.00600   0.
    27.85000  2945.42200   0.
    28.96000  2944.83800   0.
    30.07000  2944.25400   0.
    32.56750  2943.00000   0.
    33.95500  2942.33000   0.
    35.34250  2941.66000   0.
    38.11750  2940.39750   0.
    39.50500  2939.80500   0.
    40.89250  2939.21250   0.
    43.66750  2938.18250   0.
    45.05500  2937.74500   0.
    46.44250  2937.30750   0.
    49.22000  2936.51750   0.
    50.61000  2936.16500   0.
    52.00000  2935.81250   0.
    54.77750  2935.01750   0.
    56.16500  2934.57500   0.
    57.55250  2934.13250   0.
    60.32750  2933.25500   0.
    61.71500  2932.82000   0.
    63.10250  2932.38500   0.
    65.87750  2931.91500   0.
    67.26500  2931.88000   0.
    68.65250  2931.84500   0.
    71.43000  2931.69750   0.
    72.82000  2931.58500   0.
    74.21000  2931.47250   0.
    76.98750  2931.44500   0.
    78.37500  2931.53000   0.
    79.76250  2931.61500   0.
    82.53750  2931.75500   0.
    83.92500  2931.81000   0.
     6.60134  2937.05984   0.
    20.80435  2932.52560   0.
     3.78758  2946.36592   0.
    15.48523  2940.98228   0.
    29.30091  2934.50364   0.
    23.90594  2939.46561   0.
    40.87322  2931.62711   0.
     1.03219  2951.87344   0.
    10.83406  2946.32292   0.
    20.42668  2943.42459   0.
    48.80952  2930.83467   0.
    35.50309  2935.49258   0.
     7.54365  2949.73854   0.
    28.57967  2939.84283   0.
    15.90963  2945.83181   0.
    44.30452  2933.27820   0.
    -0.12722  2955.42655   0.
    24.47411  2943.04615   0.
     4.45051  2952.86019   0.
    40.01017  2935.22543   0.
    52.75593  2931.58993   0.
    13.75183  2934.27842   0.
    32.31862  2938.44653   0.
     0.40990  2931.04902   0.
    19.20708  2946.27332   0.
    57.19103  2930.55709   0.
    -0.97178  2947.27328   0.
    19.39705  2939.49643   0.
    11.08068  2950.12444   0.
    32.86215  2930.47012   0.
     7.41320  2941.82707   0.
    13.76382  2948.77946   0.
    27.17579  2942.79365   0.
     7.27112  2952.68663   0.
     2.71547  2954.94653   0.
    22.91159  2945.17994   0.
     2.00816  2941.86911   0.
    24.73355  2934.79062   0.
    47.86753  2934.00196   0.
    50.62083  2933.29089   0.
    60.15732  2930.28185   0.
    37.65425  2937.53830   0.
    44.64836  2929.77041   0.
    10.93416  2939.02064   0.
     4.26476  2949.76242   0.
    36.78915  2931.78219   0.
     7.36345  2946.13476   0.
    30.92470  2941.06806   0.
     6.19921  2931.10091   0.
    35.16618  2938.51604   0.
    16.36294  2929.87801   0.
    13.43632  2943.77014   0.
    42.64967  2935.50406   0.
    26.89596  2931.23775   0.
     1.59760  2936.73753   0.
    17.19200  2948.13905   0.
    -0.61497  2957.60981   0.
    26.49360  2937.36117   0.
     9.56799  2951.50953   0.
    17.55858  2943.77119   0.
    55.26825  2932.33039   0.
    22.03247  2936.46128   0.
    16.10828  2937.24515   0.
    22.48452  2941.40733   0.
    20.86327  2946.43955   0.
    29.71126  2937.35408   0.
    32.14062  2935.59882   0.
    45.26358  2935.44707   0.
    29.19256  2942.39482   0.
    25.22337  2944.48902   0.
    25.77440  2940.40763   0.
     5.12787  2951.33100   0.
     9.72036  2943.07255   0.
     0.63027  2944.64860   0.
     5.15669  2954.13690   0.
    33.80274  2940.56791   0.
     1.57076  2956.41210   0.
     9.31000  2947.97928   0.
     9.87726  2933.53233   0.
    53.60824  2932.85261   0.
    40.63972  2936.89193   0.
    13.47285  2946.23828   0.
    37.68088  2934.75035   0.
    46.32767  2931.88185   0.
    18.64740  2941.16071   0.
    13.09413  2950.32980   0.
    18.01744  2935.92389   0.
     0.55332  2948.73049   0.
     5.35766  2947.55011   0.
    42.44669  2933.52960   0.
    57.75733  2932.24094   0.
    23.68300  2931.83870   0.
    19.94397  2947.74183   0.
    61.81887  2931.15328   0.
[...]
POINT_DATA      1414
CELL_DATA      2568
SCALARS Resistivity(ohm.m) double 1
LOOKUP_TABLE default
          1127.23733          1785.90816          2428.77411          1083.94708           526.23069          2348.35762          1270.75676          1430.63723          1695.64559          2111.82555           748.00068          2045.70758           589.08049          2293.29694          2256.55826          1850.58976          1616.15542           459.80635           451.66059          2437.54768          1198.63272          1894.47093          1279.08266           641.20854          1908.70134           477.96532           267.96270          2303.52470          2199.35747          2392.60387           472.75554           483.45586          1700.94954           389.76337           374.35158          1621.76428           722.52899           914.69967          1234.22414          1508.16006          1856.96481           668.37061           439.79199          2285.92740           328.82679           404.81966          2807.13280           793.64388           604.27290           932.62219          2533.82825          1895.81581           967.56366          1619.40715          2272.89937           878.08293           358.89110          2355.33041           424.97860          1037.80181           541.35743          2154.17648           457.40648          1815.20666           270.72626          1605.86527          2194.29899          2066.58751           291.16542           693.87615           457.46011           774.11889          2070.07964           394.85994           329.97959          2822.48307          1414.82815           457.03148           347.97106          2657.69924          2552.23453          1371.33170           408.80318           408.65637          2081.61384           760.37375           333.46586          2105.83292           860.15221          1929.90709          1014.63431           351.07487          2367.04675           374.65668          1736.37820          2030.48109           558.16381          1168.64290          2182.64140           966.25517          1559.70642           532.69944           612.08890           692.13915          1005.96831          1733.85477           505.14329           899.64794          2117.38563          1249.88471           400.00940          1092.67286          2460.71704          1814.64275          2044.32865          1344.93106          1015.07765          1543.05779           426.83641           318.48368          2399.08975          1389.38259          2863.99864           701.83885           529.94588          2130.76966          2366.93029          3086.51326          1803.72020          1369.65285          2134.46659          1077.56958          1248.75549          2267.98157           789.20054          2742.64061           396.06750          1704.30520           973.38409          1399.88534          1627.18841           506.78880           593.22729          1293.24099          1691.70821           552.50713           433.51518          1485.31052          1990.41391           519.61343          2370.90886          1946.61239           885.74497           671.05010          2342.41095           300.42574          1535.95618           401.06749          2205.42986          1300.34885          1114.60818           497.73750          2300.44195           450.61864          2301.34022           559.10637          1400.95958          1752.02816          1944.10969          1765.32828           691.73566           737.06604           665.28880           277.36017           392.63556           890.36980           775.92478          3406.93049          2581.61221          1081.99314          2335.87067          1339.64013          2056.33586           703.00489           539.96401           932.07417           830.26436           621.59074           830.05224          2412.17157          1225.28533          2368.99757           564.93045          2545.13137           274.14087           481.89435          2500.38167          2138.79897          1211.05832           398.28245           300.61679           799.72924          1782.31183          1471.20688          1737.05494          1014.00842          3716.23668          2321.36373           376.27417          2306.28043          1325.70822           582.23387           400.85223           339.89207           581.85817          1169.01221          2302.86306           454.45179          1213.17496           498.28554           851.22006          1278.29148          1062.50542           351.53354           616.18482           613.67767           397.34457           518.96765          1325.99027           324.29623           999.67500          1998.57869          1413.69890          2859.18367          2395.32470          1589.20496          2411.67541          1358.46633          1348.30276          1371.50052          2498.54402           627.74536           926.59770           397.71528          2409.22767           278.25523          1902.15667           468.45666           456.52759          2200.36205           269.82442          1993.38400          1667.48559           648.49285          2063.06631           924.19020           615.69093           683.68623           667.08027          2809.65828           575.07347          2275.73162           493.55075           417.83992           425.77293          1575.70693           360.76352          2388.64372           869.07431          2383.63043           945.59822          2105.81667          2378.24925          2296.56312           428.56013          1635.93166          2253.43699           434.71334           679.96542           629.47125           447.28612          1416.36242           287.11092           890.43901           864.92485          2426.19115           446.22556          2431.91136           602.73528           480.25913           898.28906           317.32366          2312.20631           625.85426          1999.08268          2368.05520          1398.02652           512.01191           428.50454           611.46179           995.59551           421.57835          2470.86171          2458.95290           405.70667          1854.58445          1330.04292          1550.42489          1966.09605           399.11269           654.11684           576.06027           291.69191          2387.61344           746.51655           344.98683           485.20963          1089.63136          2694.33444           435.25400          3152.76052           380.13328           930.17750           462.64665           512.03744          1202.77996           438.43826          1426.92368          1019.60602          2733.46895          1803.27492          2257.33721           485.03926          1521.73680           338.57490           379.25072           559.93643           582.16500          3035.75958           549.51005          2193.27595           429.24271          2198.48118           466.96412           552.14319          1837.62946          1147.33414          1076.78912           435.70449          2247.40569           463.64698          2386.55702           739.85908           387.80275           438.52735          2129.91120           475.04745          1544.74567           311.43182           371.23413           791.33874          1551.26851           851.13115           499.08360          1371.99456           475.43997           371.72764          2410.73515          1730.40286          2580.01183           441.63051          1326.89854          1424.35313           967.01833           294.47408          2552.81140           387.70546           449.57236           432.16568          2067.57589          1371.68695           445.57877          1813.14458          2375.83428           279.61371          1369.41476           561.25040          1285.67132           417.30385          1443.98897           669.40119           326.42737          1457.69168          1344.71673           443.42903           769.82593           542.64586          1279.47459          1766.15466           963.73183           564.61084           594.11135          1339.16465          1483.89654          1299.24863           822.61210           497.15480           897.98304          2366.72014          1640.57345          1475.49739          2202.89227           958.29254           659.82202          1109.68031          2477.40431           653.24057           859.14366           666.32457          1717.56127           927.53796           363.53886          2246.65207          1363.02346          1253.40489           281.96152          1556.30115           563.26898          1420.37822           495.95437          1308.73900           483.38405           441.01832          1885.14588           995.23911          1485.09587          1483.87652           619.27765          1920.70055          1240.93603          3401.29094           620.07489          1169.99898          2041.45601          1138.34458          1040.44239          1316.99195          1206.09918          4058.38382           806.68866          3164.04484          1561.12601          1415.95116          1159.71769          1609.29732           786.08444          2149.24657           876.69604          1300.72945           440.59266          1940.47827          1330.52196           838.48546          1253.59710          2257.26988           782.90685           820.19530          1121.68491          1644.79427          1634.07265           819.05129          1856.06938           838.29153           288.03039          1967.20782          3756.54336          1000.37542           411.62139          1444.30561           689.85700          1060.08437          1881.80858           481.28719           548.43341          2202.73262          2634.42551          1190.64413           371.85856           665.68682           742.45704          1284.43153          1082.88322          1045.91584          1550.02368           757.22140          1499.61361           726.36186          1024.07454          2484.40247          1841.70964           637.53464           338.48619           578.55632          1240.29425           736.47777          1186.72936          3538.07078          1251.65494           346.41468           456.05766          1203.22781          1176.33271           835.98510           386.59631          3060.01785          1434.12625           354.33982          3204.45934          2300.50337           422.28707          1374.58787          1246.69982          1049.56894          1132.03459          1047.62249           518.38062          1537.21140          1471.27833          1491.08357          1228.57662           663.27455          1688.90507           458.59688          1159.61463           550.27541           435.38654           684.72510          1726.09671          1079.61900           891.99945           449.49196           377.85275          1721.52186          1126.77480          4248.41585          4214.26304          3480.02215          2003.40667          1967.68077          2087.27603          3558.44291          4991.01992           606.49025          4605.51170           397.58055          1066.51479          1441.85125           659.35902          3942.75449          4955.80503          1291.30296           449.07365          2064.36398          2669.84225           815.07567           833.49685          1436.17983          4348.27829          1422.53398          2419.39978           965.48622           604.11268          1427.22822          1556.38816           435.89907          3269.87774           489.26977          1407.90262          5169.67973          3994.58384          1787.18851          4890.97244           313.26071           848.70929           464.75034          1950.69199          2649.19525          1820.40444          3143.85766          1809.68865          2596.87834           758.74817          1570.87502          1328.30448          1705.98972          8810.55444          3624.82762           980.88921          4740.72913          3938.11869           847.48000           629.86564          4940.58377          2756.88433          4402.62630          5023.94110          1451.64017           833.89257           612.84841           523.57893           810.77655          4336.98598          1700.32347           990.91285          1589.66338           353.71085          1084.95418          1867.31371          3612.98852          1089.53146           875.01712           682.00668           770.34638          1598.00498          1457.32770           885.22189          3251.49687          2864.08954          3150.95815          3372.09635          5798.22975          4174.00447          2565.20011           535.42027          4518.69040          1232.14070          1650.33891           624.19530          1397.13915           857.36887           369.68925          6376.23229          4990.44387          1516.03817          1571.31957          2725.78996          2312.69315          3040.10227          2958.83484           885.13686          1231.38144           628.65144           819.28210           387.32961           493.18482           759.73797           631.62833          2032.35373          4232.44847          3411.09845          1517.22807          2158.15821          1462.90457          1658.21580          7947.88202          4988.50784          1861.99049           395.16824           560.26858          5123.53749           676.18294          3839.42031          4426.22156          1055.55981          2524.49390           758.57245           913.16264          1067.61036          2480.52987          2552.45215          2664.55669           684.94540           481.63729          1193.77990           380.26044           605.78141           432.34766          3490.83469          5330.76046           445.03985          2930.21982           829.61569          2603.09435          1280.74172           651.61873           649.61703           669.35097           661.53405          1962.86812           767.01908          1457.01310           700.78900          2580.09945          1793.41576          3841.36410          2803.79370           609.37012           615.32803           355.80311          3080.98459           740.67914           799.34776          1247.22494          2679.98488           717.27919           840.29966           528.24956          1219.56411          1030.60545          1484.69385          1402.80273           657.00480           800.81081           712.81692          2617.66122          2180.45935          1316.09426          7555.17081          1050.61283           847.92499           879.89394          1512.76501          2557.44497          1507.66845          1558.09033          1471.10399          2707.41476           726.00007          7335.91866          1470.22611          2659.47225           801.04219          1199.40003          3963.65288          2887.49653           788.97549          1059.92132          3327.45058           461.00556           555.12986          1255.27435          2804.83880          5866.76219          1451.03370          6986.16752          1200.45500          1714.92422          1519.94692          1246.49795           454.20900           791.47005          2730.82060           676.23126          4256.89043           670.65591          3195.58027           768.52672           681.32965          1449.08569          1982.36226          2875.79176          4851.43492          2698.62831          1530.74848          1762.45053          1306.01897          5478.67683          7283.71989          1943.62695          1013.19354          2822.93008           654.07692          1163.41697           856.52253          2691.97156          1188.15018          1116.68271           552.55202           658.19660          3681.73831           955.61626           765.82194          6122.27610          4013.54409          2360.71603          1356.38193          7538.41180           805.11217          2492.47326          2860.84755          2117.16965          1052.36143          2975.33299          5401.57836          1746.73762           427.27528           738.92242           849.81279          1825.15275          1772.65497           677.89795           682.73676          6217.33890           759.55986          1209.33923          1870.04163          3957.81540          5057.19669           463.34639          1366.47458           852.05946          1082.98319          1904.67425           741.80442           800.47832          1329.43240           782.37670           624.78235           404.81702           766.97032          2856.28086           482.00601          2826.37319          1709.25446          2030.09138          1389.65028          1860.50340          1557.93631           404.37355          4220.90508          1575.25982          1901.88018          1912.90154          2367.89958          5382.59926           922.64741          5321.86934           614.58792           675.06214          1588.92554          1209.63720          7429.62622          2579.76314           881.81808          1692.08575          4009.13256          3364.17016           607.98561          5078.24040          1440.35505          2764.30127          1085.06973          3551.87020          3818.39684           478.58352          3397.10752          4024.77736          2527.98568          5549.75634           840.03408           739.41658          1198.37513          2487.38511           442.02611          9703.92134          3947.36753           655.05117          1783.33528          1599.92590          2080.85295           768.98020          1173.72895         12512.60336           650.45211          2455.95654          1313.87608           452.50557           816.90647          2447.24494          5626.53140          5819.91577          1473.46319          2533.72744          2593.68259          4462.38409           722.57494          1390.98164          2304.67111          1652.82792          5351.19042           652.66486          1194.17541          2801.81883           813.20754          3729.14852          2270.60459          6723.73944          2496.14597          1200.69297          1272.83827           655.55369          5230.23446          7190.72117          1944.28442           295.79788           374.14224           791.06017           798.34138          6249.95974          1413.48432          2140.51169          3193.85199          2452.95567          5458.08473          5809.13567           368.96973           656.90364           776.36125          1216.97492           625.39994          4181.36739          3937.50593          1388.72907           671.48813          1040.49391          2229.53438          3793.37196          2443.85120          1977.46601           835.98041          4253.13520          7290.00104           441.07915           663.01948          1728.94693          7477.34959          1876.83309          2920.11415          4649.43775           707.46729          1696.05351          4543.68533           533.62119          1453.04701           958.90785          6033.42993           865.94569          1703.14757          2949.44761          5455.71743          4749.95573          5932.60298          4462.17208          4341.83771          1817.64298           835.23500          3656.46524         10391.98696           655.13317          2430.19330          2593.62102           296.13982          2450.56682          3364.82021          2689.32694           432.69702          4559.90000           774.26296          3357.97782          4414.30050          1864.16156           785.72261          2931.71442          3388.93516          5338.42668          6076.02437          5346.37681           605.77408           712.97598          1234.03937          4752.82882          1168.16573          2809.71731           805.83400           596.051