# vtk DataFile Version 3.0
Output from R2
ASCII
DATASET UNSTRUCTURED_GRID
POINTS       1414 double
     0.00000  2968.10000   0.
     1.54000  2966.60000   0.
     3.08000  2964.90000   0.
     4.61000  2964.10000   0.
     6.15000  2963.30000   0.
     7.69000  2962.60000   0.
     9.23000  2961.50000   0.
    10.76000  2960.70000   0.
    12.30000  2960.00000   0.
    13.84000  2959.30000   0.
    15.38000  2958.70000   0.
    16.91000  2958.10000   0.
    18.45000  2957.30000   0.
    19.99000  2956.60000   0.
    21.52000  2955.80000   0.
    23.06000  2955.00000   0.
    24.60000  2954.30000   0.
    26.14000  2953.50000   0.
    27.68000  2952.80000   0.
    29.21000  2951.90000   0.
    30.75000  2951.10000   0.
    32.29000  2950.20000   0.
    33.83000  2949.50000   0.
    35.36000  2948.70000   0.
    36.90000  2948.10000   0.
    38.44000  2947.30000   0.
    39.98000  2946.70000   0.
    41.51000  2946.10000   0.
    43.05000  2945.50000   0.
    44.59000  2945.10000   0.
    46.13000  2944.50000   0.
    47.66000  2944.10000   0.
    49.20000  2943.60000   0.
    50.74000  2943.40000   0.
    52.28000  2943.00000   0.
    53.81000  2942.50000   0.
    55.35000  2942.10000   0.
    56.89000  2941.60000   0.
    58.43000  2941.00000   0.
    59.96000  2940.60000   0.
    61.50000  2940.10000   0.
    63.04000  2939.50000   0.
    64.58000  2939.10000   0.
    66.11000  2939.20000   0.
    67.65000  2939.20000   0.
    69.19000  2939.10000   0.
    70.73000  2938.90000   0.
    72.26000  2938.60000   0.
    73.80000  2938.30000   0.
    75.34000  2938.50000   0.
    76.88000  2938.70000   0.
    78.41000  2938.60000   0.
    79.95000  2938.80000   0.
    81.49000  2938.90000   0.
    83.03000  2939.10000   0.
    84.56000  2939.10000   0.
     3.42000  2957.55000   0.
     8.97000  2954.51000   0.
    14.52000  2951.86000   0.
    20.07000  2949.38000   0.
    25.63000  2946.59000   0.
    31.18000  2943.67000   0.
    36.73000  2940.99000   0.
    42.28000  2938.62000   0.
    47.83000  2936.87000   0.
    53.39000  2935.46000   0.
    58.94000  2933.69000   0.
    64.49000  2931.95000   0.
    70.04000  2931.81000   0.
    75.60000  2931.36000   0.
    81.15000  2931.70000   0.
     0.51333  2967.60000   0.
     1.02667  2967.10000   0.
     2.05333  2966.03333   0.
     2.56667  2965.46667   0.
     3.59000  2964.63333   0.
     4.10000  2964.36667   0.
     5.12333  2963.83333   0.
     5.63667  2963.56667   0.
     6.66333  2963.06667   0.
     7.17667  2962.83333   0.
     8.20333  2962.23333   0.
     8.71667  2961.86667   0.
     9.74000  2961.23333   0.
    10.25000  2960.96667   0.
    11.27333  2960.46667   0.
    11.78667  2960.23333   0.
    12.81333  2959.76667   0.
    13.32667  2959.53333   0.
    14.35333  2959.10000   0.
    14.86667  2958.90000   0.
    15.89000  2958.50000   0.
    16.40000  2958.30000   0.
    17.42333  2957.83333   0.
    17.93667  2957.56667   0.
    18.96333  2957.06667   0.
    19.47667  2956.83333   0.
    20.50000  2956.33333   0.
    21.01000  2956.06667   0.
    22.03333  2955.53333   0.
    22.54667  2955.26667   0.
    23.57333  2954.76667   0.
    24.08667  2954.53333   0.
    25.11333  2954.03333   0.
    25.62667  2953.76667   0.
    26.65333  2953.26667   0.
    27.16667  2953.03333   0.
    28.19000  2952.50000   0.
    28.70000  2952.20000   0.
    29.72333  2951.63333   0.
    30.23667  2951.36667   0.
    31.26333  2950.80000   0.
    31.77667  2950.50000   0.
    32.80333  2949.96667   0.
    33.31667  2949.73333   0.
    34.34000  2949.23333   0.
    34.85000  2948.96667   0.
    35.87333  2948.50000   0.
    36.38667  2948.30000   0.
    37.41333  2947.83333   0.
    37.92667  2947.56667   0.
    38.95333  2947.10000   0.
    39.46667  2946.90000   0.
    40.49000  2946.50000   0.
    41.00000  2946.30000   0.
    42.02333  2945.90000   0.
    42.53667  2945.70000   0.
    43.56333  2945.36667   0.
    44.07667  2945.23333   0.
    45.10333  2944.90000   0.
    45.61667  2944.70000   0.
    46.64000  2944.36667   0.
    47.15000  2944.23333   0.
    48.17333  2943.93333   0.
    48.68667  2943.76667   0.
    49.71333  2943.53333   0.
    50.22667  2943.46667   0.
    51.25333  2943.26667   0.
    51.76667  2943.13333   0.
    52.79000  2942.83333   0.
    53.30000  2942.66667   0.
    54.32333  2942.36667   0.
    54.83667  2942.23333   0.
    55.86333  2941.93333   0.
    56.37667  2941.76667   0.
    57.40333  2941.40000   0.
    57.91667  2941.20000   0.
    58.94000  2940.86667   0.
    59.45000  2940.73333   0.
    60.47333  2940.43333   0.
    60.98667  2940.26667   0.
    62.01333  2939.90000   0.
    62.52667  2939.70000   0.
    63.55333  2939.36667   0.
    64.06667  2939.23333   0.
    65.34500  2939.15000   0.
    66.88000  2939.20000   0.
    68.42000  2939.15000   0.
    69.70333  2939.03333   0.
    70.21667  2938.96667   0.
    71.24000  2938.80000   0.
    71.75000  2938.70000   0.
    72.77333  2938.50000   0.
    73.28667  2938.40000   0.
    74.31333  2938.36667   0.
    74.82667  2938.43333   0.
    75.85333  2938.56667   0.
    76.36667  2938.63333   0.
    77.64500  2938.65000   0.
    78.92333  2938.66667   0.
    79.43667  2938.73333   0.
    80.72000  2938.85000   0.
    82.00333  2938.96667   0.
    82.51667  2939.03333   0.
    83.79500  2939.10000   0.
     0.08400  2959.57200   0.
     1.19600  2958.89800   0.
     2.30800  2958.22400   0.
     4.53000  2956.94200   0.
     5.64000  2956.33400   0.
     6.75000  2955.72600   0.
     7.86000  2955.11800   0.
    10.35750  2953.84750   0.
    11.74500  2953.18500   0.
    13.13250  2952.52250   0.
    15.90750  2951.24000   0.
    17.29500  2950.62000   0.
    18.68250  2950.00000   0.
    21.18200  2948.82200   0.
    22.29400  2948.26400   0.
    23.40600  2947.70600   0.
    24.51800  2947.14800   0.
    26.74000  2946.00600   0.
    27.85000  2945.42200   0.
    28.96000  2944.83800   0.
    30.07000  2944.25400   0.
    32.56750  2943.00000   0.
    33.95500  2942.33000   0.
    35.34250  2941.66000   0.
    38.11750  2940.39750   0.
    39.50500  2939.80500   0.
    40.89250  2939.21250   0.
    43.66750  2938.18250   0.
    45.05500  2937.74500   0.
    46.44250  2937.30750   0.
    49.22000  2936.51750   0.
    50.61000  2936.16500   0.
    52.00000  2935.81250   0.
    54.77750  2935.01750   0.
    56.16500  2934.57500   0.
    57.55250  2934.13250   0.
    60.32750  2933.25500   0.
    61.71500  2932.82000   0.
    63.10250  2932.38500   0.
    65.87750  2931.91500   0.
    67.26500  2931.88000   0.
    68.65250  2931.84500   0.
    71.43000  2931.69750   0.
    72.82000  2931.58500   0.
    74.21000  2931.47250   0.
    76.98750  2931.44500   0.
    78.37500  2931.53000   0.
    79.76250  2931.61500   0.
    82.53750  2931.75500   0.
    83.92500  2931.81000   0.
     6.60134  2937.05984   0.
    20.80435  2932.52560   0.
     3.78758  2946.36592   0.
    15.48523  2940.98228   0.
    29.30091  2934.50364   0.
    23.90594  2939.46561   0.
    40.87322  2931.62711   0.
     1.03219  2951.87344   0.
    10.83406  2946.32292   0.
    20.42668  2943.42459   0.
    48.80952  2930.83467   0.
    35.50309  2935.49258   0.
     7.54365  2949.73854   0.
    28.57967  2939.84283   0.
    15.90963  2945.83181   0.
    44.30452  2933.27820   0.
    -0.12722  2955.42655   0.
    24.47411  2943.04615   0.
     4.45051  2952.86019   0.
    40.01017  2935.22543   0.
    52.75593  2931.58993   0.
    13.75183  2934.27842   0.
    32.31862  2938.44653   0.
     0.40990  2931.04902   0.
    19.20708  2946.27332   0.
    57.19103  2930.55709   0.
    -0.97178  2947.27328   0.
    19.39705  2939.49643   0.
    11.08068  2950.12444   0.
    32.86215  2930.47012   0.
     7.41320  2941.82707   0.
    13.76382  2948.77946   0.
    27.17579  2942.79365   0.
     7.27112  2952.68663   0.
     2.71547  2954.94653   0.
    22.91159  2945.17994   0.
     2.00816  2941.86911   0.
    24.73355  2934.79062   0.
    47.86753  2934.00196   0.
    50.62083  2933.29089   0.
    60.15732  2930.28185   0.
    37.65425  2937.53830   0.
    44.64836  2929.77041   0.
    10.93416  2939.02064   0.
     4.26476  2949.76242   0.
    36.78915  2931.78219   0.
     7.36345  2946.13476   0.
    30.92470  2941.06806   0.
     6.19921  2931.10091   0.
    35.16618  2938.51604   0.
    16.36294  2929.87801   0.
    13.43632  2943.77014   0.
    42.64967  2935.50406   0.
    26.89596  2931.23775   0.
     1.59760  2936.73753   0.
    17.19200  2948.13905   0.
    -0.61497  2957.60981   0.
    26.49360  2937.36117   0.
     9.56799  2951.50953   0.
    17.55858  2943.77119   0.
    55.26825  2932.33039   0.
    22.03247  2936.46128   0.
    16.10828  2937.24515   0.
    22.48452  2941.40733   0.
    20.86327  2946.43955   0.
    29.71126  2937.35408   0.
    32.14062  2935.59882   0.
    45.26358  2935.44707   0.
    29.19256  2942.39482   0.
    25.22337  2944.48902   0.
    25.77440  2940.40763   0.
     5.12787  2951.33100   0.
     9.72036  2943.07255   0.
     0.63027  2944.64860   0.
     5.15669  2954.13690   0.
    33.80274  2940.56791   0.
     1.57076  2956.41210   0.
     9.31000  2947.97928   0.
     9.87726  2933.53233   0.
    53.60824  2932.85261   0.
    40.63972  2936.89193   0.
    13.47285  2946.23828   0.
    37.68088  2934.75035   0.
    46.32767  2931.88185   0.
    18.64740  2941.16071   0.
    13.09413  2950.32980   0.
    18.01744  2935.92389   0.
     0.55332  2948.73049   0.
     5.35766  2947.55011   0.
    42.44669  2933.52960   0.
    57.75733  2932.24094   0.
    23.68300  2931.83870   0.
    19.94397  2947.74183   0.
    61.81887  2931.15328   0.
[...]
POINT_DATA      1414
CELL_DATA      2568
SCALARS Resistivity(ohm.m) double 1
LOOKUP_TABLE default
          1123.44433          1773.05038          2406.79742          1070.89241           505.61177          2307.81783          1268.68602          1467.71072          1718.63794          2109.21888           768.82117          2067.29173           588.43226          2272.87493          2237.67700          1900.12652          1620.50104           473.25498           423.29564          2428.51797          1185.46981          1927.85928          1288.39767           598.19792          1883.46405           469.82927           290.03327          2255.31238          2198.41243          2375.70910           441.64096           481.62892          1695.36653           398.82205           380.89849          1652.05536           749.09542           892.16106          1240.68725          1520.09442          1869.86394           688.25662           409.58221          2281.76919           327.20575           417.02641          2903.27491           810.41510           611.23370           938.40075          2562.86667          1878.06845           994.11682          1628.94668          2290.32296           843.50225           356.90414          2330.71338           416.97552          1063.06266           516.03993          2119.08894           473.45193          1860.18191           289.47035          1634.24058          2141.37358          2052.42056           301.56941           632.72556           458.40100           800.32490          2052.41321           385.31555           351.08296          2886.02831          1433.55044           463.88956           370.68048          2722.95772          2590.49357          1413.12609           397.41142           419.23255          2046.56343           697.89253           334.41711          2106.19532           878.35549          1920.42503          1003.92105           342.69522          2335.18575           394.04540          1767.23003          2005.87877           546.79541          1197.54643          2157.39319           945.25665          1569.15655           501.05984           571.01971           707.31145          1028.42865          1745.63279           483.68901           919.04812          2152.59913          1282.58092           419.02858          1106.39085          2477.17422          1820.54299          2036.90821          1371.61946          1031.86672          1550.98356           397.44820           324.38803          2377.07814          1404.19152          2959.15992           679.65700           519.87544          2080.87293          2373.48883          3209.23759          1832.71552          1390.62317          2094.77106          1059.15057          1260.31639          2234.95802           793.15004          2786.34079           414.99654          1709.68318           944.25715          1428.11846          1628.26737           478.69396           548.77486          1308.56640          1688.05410           516.79932           415.00648          1495.53305          1954.79048           491.61346          2365.02645          1928.99425           892.87980           697.89843          2303.56588           323.06800          1587.08971           408.70186          2196.87985          1315.14439          1146.25354           466.73978          2307.72303           448.30021          2276.82606           536.04745          1409.83453          1800.97820          1951.81559          1755.76120           718.05918           731.20725           623.69181           292.47574           377.71596           924.98247           717.16486          3504.96473          2608.61412          1095.01156          2291.43919          1387.83599          2017.98665           668.22332           512.50342           893.16314           774.30925           570.93143           863.60923          2420.49000          1232.95955          2363.44991           513.22425          2583.71751           289.79551           442.05209          2524.73008          2110.78787          1217.97850           375.79768           324.79455           829.16346          1802.67018          1484.24158          1788.47810           988.53494          3809.42855          2333.57417           359.38056          2306.29095          1337.35583           547.10423           379.69843           345.55827           539.23494          1169.35760          2296.07432           459.84807          1224.47771           460.35474           878.11311          1307.22986          1066.18910           360.31225           598.14580           557.24272           414.95887           473.62201          1354.73397           333.82391          1035.34860          2043.72505          1426.10614          2902.65541          2373.17164          1639.09905          2399.42579          1406.14159          1380.06523          1383.34517          2525.31588           627.87105           881.11450           382.43358          2408.64602           300.04329          1884.94377           454.19219           470.85070          2186.03691           293.17408          2038.07646          1709.44716           591.58131          2019.92007           924.87882           629.02124           628.07697           651.51557          2842.45779           560.13842          2262.62956           493.04922           393.99101           415.37680          1619.44562           362.36773          2362.04709           814.32971          2378.52002           982.36970          2136.04484          2387.86727          2245.47618           438.53882          1638.97861          2270.04476           449.78198           707.52008           647.91128           464.31158          1436.49460           305.58887           879.96904           895.04403          2405.60928           412.99742          2422.70342           592.31329           485.29153           929.36384           334.86761          2279.53733           569.55849          1961.59232          2331.80895          1424.71269           475.51577           405.92625           557.57383          1001.28915           403.51605          2477.93221          2477.49202           405.69948          1850.76902          1344.11621          1556.30400          1963.02757           415.98925           594.72984           566.26435           300.31201          2360.09822           776.10020           358.41232           474.07813          1128.20122          2720.60916           442.37247          3231.35589           377.16407           945.32673           472.46007           469.02605          1205.43233           429.49876          1451.21732           989.61719          2797.38179          1792.53111          2212.17950           448.07498          1561.11493           340.55782           366.93918           509.80472           555.87779          3119.25072           513.49231          2145.58317           445.74640          2150.58631           456.07856           512.29688          1828.57011          1167.29867          1104.47974           432.78801          2193.60067           473.29297          2392.20927           684.12978           403.59029           408.19789          2082.24892           449.50774          1575.16801           313.79487           356.20984           823.04448          1569.51071           873.83725           462.88576          1387.20618           446.55428           384.95242          2393.10750          1763.24306          2602.69817           457.52598          1345.49784          1435.73510           995.96435           307.93404          2588.48838           379.52464           460.95137           431.22714          2026.37395          1383.49007           462.61128          1819.94124          2358.87165           304.75758          1387.55844           536.03229          1329.93111           393.85305          1486.13052           610.39112           325.13073          1475.61058          1337.24602           455.28920           797.74212           499.80847          1315.98827          1761.62043           996.77506           544.41460           542.77246          1352.32187          1516.84026          1312.43272           784.09151           478.84418           857.00328          2330.83390          1655.96891          1501.35855          2162.61178           994.80155           622.56867          1107.84452          2484.10982           677.54280           865.80972           669.75631          1743.55512           961.31309           351.28002          2196.66690          1401.22794          1270.17414           294.80504          1601.14543           543.58202          1433.74217           485.60983          1325.77281           482.32760           454.27773          1924.25717          1000.26850          1494.35471          1503.95581           627.08667          1912.11499          1267.42215          3522.75542           573.71592          1168.38135          2073.88253          1130.39978          1055.07183          1339.67818          1208.64358          4109.76355           759.58297          3274.00840          1576.00037          1464.24656          1185.37289          1659.85176           766.27437          2130.95275           829.00854          1339.79888           446.90435          1910.44710          1342.03883           787.74127          1298.35438          2224.12617           750.24671           851.47929          1163.19657          1687.68532          1658.17907           837.68311          1834.66984           828.09259           305.36113          1937.89828          3819.60502          1037.42077           402.78800          1491.05655           683.86205          1053.42893          1928.60875           442.41195           528.22222          2176.76017          2695.57828          1234.63060           390.20537           692.09279           726.23461          1293.64396          1122.68768          1019.86704          1574.85247           707.31600          1527.00816           680.95312          1023.54686          2500.87960          1822.54519           653.01828           357.70267           564.87311          1261.42533           698.56617          1204.12897          3583.35543          1260.63513           338.37788           423.16090          1246.28386          1186.45532           836.58319           369.10817          3114.80715          1467.33681           343.82460          3248.33766          2257.89606           434.58938          1395.63526          1253.66678          1033.30277          1170.88423          1038.08466           475.01599          1584.79330          1495.29352          1511.24303          1268.09154           611.58201          1735.64804           475.33129          1194.83609           504.26621           447.13513           637.94252          1732.81199          1078.20739           842.17469           465.15121           364.01593          1721.05936          1128.36082          4342.51781          4620.26858          3624.86240          2089.94614          1993.03687          2104.50417          3527.37441          5009.27430           585.72545          4639.37652           394.58131          1107.67085          1531.78307           583.99085          4187.73554          4802.95434          1313.66109           454.21059          2023.49568          2715.66617           820.77670           827.67696          1424.35401          4586.89500          1245.63050          2539.28091           931.00313           536.02844          1582.43251          1555.83461           412.22792          3460.54603           517.58060          1376.71762          5226.76499          4248.53815          1748.77440          5429.85321           342.66334           854.59210           475.42440          1850.11991          2712.20601          1734.93225          2869.58135          1789.53393          2630.52375           782.95537          1608.54843          1283.39811          1732.48165          8536.33267          3769.51196           975.75733          4948.01856          3683.04088           840.63923           687.62135          4794.17091          2815.52772          4655.86610          5370.77962          1448.00399           832.92329           639.88433           460.49563           814.87839          4331.74491          1610.77371          1022.57050          1590.40697           382.53300          1141.24892          1776.65478          3840.70096           941.30610           882.05385           705.15383           769.06976          1593.71256          1449.86302           772.30698          3379.81063          2804.43711          3314.17352          3293.46953          5985.51502          3940.79109          2505.46899           530.39209          4621.02411          1213.19099          1577.51358           638.82398          1392.53228           858.83908           380.78563          6556.91168          4999.51599          1483.39817          1564.45460          2801.14436          2242.47269          3144.98151          3195.14116           897.26175          1196.64122           621.03138           817.92257           372.41847           524.72032           739.15873           558.18787          1994.13430          3898.54773          3332.23344          1451.88453          2106.05570          1409.25509          1588.21405          7810.03517          5016.32944          1812.22669           389.55711           566.01221          4962.23123           709.83482          3938.22094          4506.44971          1108.63059          2469.04053           695.72454           901.76385          1125.18389          2388.06172          2447.01670          2725.81821           621.06763           458.46932          1271.38377           408.56908           627.63398           427.70367          3702.34434          5197.51465           422.87272          3028.63826           845.65015          2631.65877          1378.82881           656.02341           632.03396           681.66429           629.40586          1941.80588           739.32953          1418.46060           696.76991          2596.13866          1806.28019          3387.99493          2878.29099           580.78155           627.54339           386.86863          3015.35795           698.60132           731.00870          1261.74110          2743.18980           712.05687           848.42306           551.68312          1241.23356           956.61866          1441.79243          1336.99269           615.82576           829.85236           750.93416          2665.64106          1989.63705          1283.10588          7363.63361          1104.21690           807.30132           899.74468          1414.40778          2387.75020          1502.68076          1578.55209          1500.15085          2715.64097           701.40903          7211.50529          1310.47420          2723.34966           772.78918          1273.59667          3776.97394          2895.20552           783.75243          1079.23710          3502.76571           462.62148           593.37223          1267.83269          2931.18835          5635.28054          1509.39395          6929.89516          1162.24681          1666.13861          1489.41885          1341.45896           463.39410           850.59462          2767.23160           701.74294          4145.31149           603.67533          3068.20791           736.53689           636.28502          1435.72676          2041.53452          2948.82659          4883.89799          2750.73455          1631.38951          1737.77393          1416.34122          5637.94409          7132.01558          1953.35692           994.39647          2934.10466           618.04823          1238.53960           879.32331          2556.21113          1271.05715          1106.08764           593.23532           613.64856          3808.46933           922.95186           773.09309          6159.40515          3831.05062          2546.48708          1346.54709          7238.54340           831.04183          2442.91337          2600.95265          2184.25082          1007.96913          3007.87831          5341.63199          1711.56302           431.28549           765.47330           869.03331          1699.99678          1726.53012           648.25998           713.06931          6135.38924           788.66732          1141.18470          1994.30758          4150.60162          4838.36992           409.30422          1334.87769           861.38206          1076.27241          1801.96131           732.88801           819.82394          1358.71098           778.16787           561.44277           371.30076           782.20047          2968.90210           490.64332          2934.70479          1660.20614          1976.25919          1368.09543          1837.24356          1547.41284           381.95433          3706.97519          1441.97243          1899.46246          1871.16014          2193.93076          5066.91869           919.35878          5509.47800           673.30297           708.02867          1580.41911          1299.44326          7313.44408          2623.77620           869.74659          1714.80630          3948.63520          3548.00682           657.83830          4532.21839          1428.81213          3014.22085          1082.21497          3624.72984          3809.55346           493.44983          3326.30368          3996.67867          2446.24723          5296.46746           856.79587           771.81722          1285.54882          2453.77766           430.66917          8807.54092          3781.41965           689.40741          1750.04572          1637.77488          2044.37878           798.92214          1248.33407         11681.11861           650.22438          2433.15636          1302.94640           458.70585           805.29957          2463.00286          5542.49137          5836.80392          1426.50222          2786.58058          2535.70075          4525.18254           768.25195          1396.78054          2083.81362          1644.47225          5184.73006           630.84255          1279.72373          2808.90700           818.93381          3923.74703          2239.39173          6775.11677          2133.26861          1040.36101          1276.74030           616.79458          5025.72442          7175.49289          1825.14946           312.36330           366.23310           786.94350           842.29585          6216.11702          1508.53676          2166.73588          3245.37895          2590.78664          5570.90032          5593.66794           381.95581           727.78283           773.39739          1184.41617           637.56523          4163.47572          3809.81288          1314.39222           644.66244          1080.36389          2197.53817          3768.77118          2418.53096          2027.33382           806.92960          4274.32431          7240.13906           442.72927           680.46057          1730.33770          7421.83610          1826.79574          3066.06708          4827.14107           674.06830          1647.97325          4645.47012           556.99198          1425.94870           926.93296          5498.51099           883.29026          1719.77209          2947.03027          5774.20117          4384.33198          6008.86127          4511.75334          4315.31360          1932.23098           843.98128          3540.65065          9560.52589           583.24142          2490.25412          2590.18272           322.63491          2474.30876          3203.05896          2553.06015           469.43184          4163.68692           789.24094          3529.99072          4422.55940          1882.26054           817.84639          3054.47870          3302.88823          5197.35940          6004.15017          5486.64587           668.66143           649.94132          1188.39157          4730.06918          1131.35892          2968.84578           757.24690           612.686