# vtk DataFile Version 3.0
Output from R2
ASCII
DATASET UNSTRUCTURED_GRID
POINTS       1414 double
     0.00000  2968.10000   0.
     1.54000  2966.60000   0.
     3.08000  2964.90000   0.
     4.61000  2964.10000   0.
     6.15000  2963.30000   0.
     7.69000  2962.60000   0.
     9.23000  2961.50000   0.
    10.76000  2960.70000   0.
    12.30000  2960.00000   0.
    13.84000  2959.30000   0.
    15.38000  2958.70000   0.
    16.91000  2958.10000   0.
    18.45000  2957.30000   0.
    19.99000  2956.60000   0.
    21.52000  2955.80000   0.
    23.06000  2955.00000   0.
    24.60000  2954.30000   0.
    26.14000  2953.50000   0.
    27.68000  2952.80000   0.
    29.21000  2951.90000   0.
    30.75000  2951.10000   0.
    32.29000  2950.20000   0.
    33.83000  2949.50000   0.
    35.36000  2948.70000   0.
    36.90000  2948.10000   0.
    38.44000  2947.30000   0.
    39.98000  2946.70000   0.
    41.51000  2946.10000   0.
    43.05000  2945.50000   0.
    44.59000  2945.10000   0.
    46.13000  2944.50000   0.
    47.66000  2944.10000   0.
    49.20000  2943.60000   0.
    50.74000  2943.40000   0.
    52.28000  2943.00000   0.
    53.81000  2942.50000   0.
    55.35000  2942.10000   0.
    56.89000  2941.60000   0.
    58.43000  2941.00000   0.
    59.96000  2940.60000   0.
    61.50000  2940.10000   0.
    63.04000  2939.50000   0.
    64.58000  2939.10000   0.
    66.11000  2939.20000   0.
    67.65000  2939.20000   0.
    69.19000  2939.10000   0.
    70.73000  2938.90000   0.
    72.26000  2938.60000   0.
    73.80000  2938.30000   0.
    75.34000  2938.50000   0.
    76.88000  2938.70000   0.
    78.41000  2938.60000   0.
    79.95000  2938.80000   0.
    81.49000  2938.90000   0.
    83.03000  2939.10000   0.
    84.56000  2939.10000   0.
     3.42000  2957.55000   0.
     8.97000  2954.51000   0.
    14.52000  2951.86000   0.
    20.07000  2949.38000   0.
    25.63000  2946.59000   0.
    31.18000  2943.67000   0.
    36.73000  2940.99000   0.
    42.28000  2938.62000   0.
    47.83000  2936.87000   0.
    53.39000  2935.46000   0.
    58.94000  2933.69000   0.
    64.49000  2931.95000   0.
    70.04000  2931.81000   0.
    75.60000  2931.36000   0.
    81.15000  2931.70000   0.
     0.51333  2967.60000   0.
     1.02667  2967.10000   0.
     2.05333  2966.03333   0.
     2.56667  2965.46667   0.
     3.59000  2964.63333   0.
     4.10000  2964.36667   0.
     5.12333  2963.83333   0.
     5.63667  2963.56667   0.
     6.66333  2963.06667   0.
     7.17667  2962.83333   0.
     8.20333  2962.23333   0.
     8.71667  2961.86667   0.
     9.74000  2961.23333   0.
    10.25000  2960.96667   0.
    11.27333  2960.46667   0.
    11.78667  2960.23333   0.
    12.81333  2959.76667   0.
    13.32667  2959.53333   0.
    14.35333  2959.10000   0.
    14.86667  2958.90000   0.
    15.89000  2958.50000   0.
    16.40000  2958.30000   0.
    17.42333  2957.83333   0.
    17.93667  2957.56667   0.
    18.96333  2957.06667   0.
    19.47667  2956.83333   0.
    20.50000  2956.33333   0.
    21.01000  2956.06667   0.
    22.03333  2955.53333   0.
    22.54667  2955.26667   0.
    23.57333  2954.76667   0.
    24.08667  2954.53333   0.
    25.11333  2954.03333   0.
    25.62667  2953.76667   0.
    26.65333  2953.26667   0.
    27.16667  2953.03333   0.
    28.19000  2952.50000   0.
    28.70000  2952.20000   0.
    29.72333  2951.63333   0.
    30.23667  2951.36667   0.
    31.26333  2950.80000   0.
    31.77667  2950.50000   0.
    32.80333  2949.96667   0.
    33.31667  2949.73333   0.
    34.34000  2949.23333   0.
    34.85000  2948.96667   0.
    35.87333  2948.50000   0.
    36.38667  2948.30000   0.
    37.41333  2947.83333   0.
    37.92667  2947.56667   0.
    38.95333  2947.10000   0.
    39.46667  2946.90000   0.
    40.49000  2946.50000   0.
    41.00000  2946.30000   0.
    42.02333  2945.90000   0.
    42.53667  2945.70000   0.
    43.56333  2945.36667   0.
    44.07667  2945.23333   0.
    45.10333  2944.90000   0.
    45.61667  2944.70000   0.
    46.64000  2944.36667   0.
    47.15000  2944.23333   0.
    48.17333  2943.93333   0.
    48.68667  2943.76667   0.
    49.71333  2943.53333   0.
    50.22667  2943.46667   0.
    51.25333  2943.26667   0.
    51.76667  2943.13333   0.
    52.79000  2942.83333   0.
    53.30000  2942.66667   0.
    54.32333  2942.36667   0.
    54.83667  2942.23333   0.
    55.86333  2941.93333   0.
    56.37667  2941.76667   0.
    57.40333  2941.40000   0.
    57.91667  2941.20000   0.
    58.94000  2940.86667   0.
    59.45000  2940.73333   0.
    60.47333  2940.43333   0.
    60.98667  2940.26667   0.
    62.01333  2939.90000   0.
    62.52667  2939.70000   0.
    63.55333  2939.36667   0.
    64.06667  2939.23333   0.
    65.34500  2939.15000   0.
    66.88000  2939.20000   0.
    68.42000  2939.15000   0.
    69.70333  2939.03333   0.
    70.21667  2938.96667   0.
    71.24000  2938.80000   0.
    71.75000  2938.70000   0.
    72.77333  2938.50000   0.
    73.28667  2938.40000   0.
    74.31333  2938.36667   0.
    74.82667  2938.43333   0.
    75.85333  2938.56667   0.
    76.36667  2938.63333   0.
    77.64500  2938.65000   0.
    78.92333  2938.66667   0.
    79.43667  2938.73333   0.
    80.72000  2938.85000   0.
    82.00333  2938.96667   0.
    82.51667  2939.03333   0.
    83.79500  2939.10000   0.
     0.08400  2959.57200   0.
     1.19600  2958.89800   0.
     2.30800  2958.22400   0.
     4.53000  2956.94200   0.
     5.64000  2956.33400   0.
     6.75000  2955.72600   0.
     7.86000  2955.11800   0.
    10.35750  2953.84750   0.
    11.74500  2953.18500   0.
    13.13250  2952.52250   0.
    15.90750  2951.24000   0.
    17.29500  2950.62000   0.
    18.68250  2950.00000   0.
    21.18200  2948.82200   0.
    22.29400  2948.26400   0.
    23.40600  2947.70600   0.
    24.51800  2947.14800   0.
    26.74000  2946.00600   0.
    27.85000  2945.42200   0.
    28.96000  2944.83800   0.
    30.07000  2944.25400   0.
    32.56750  2943.00000   0.
    33.95500  2942.33000   0.
    35.34250  2941.66000   0.
    38.11750  2940.39750   0.
    39.50500  2939.80500   0.
    40.89250  2939.21250   0.
    43.66750  2938.18250   0.
    45.05500  2937.74500   0.
    46.44250  2937.30750   0.
    49.22000  2936.51750   0.
    50.61000  2936.16500   0.
    52.00000  2935.81250   0.
    54.77750  2935.01750   0.
    56.16500  2934.57500   0.
    57.55250  2934.13250   0.
    60.32750  2933.25500   0.
    61.71500  2932.82000   0.
    63.10250  2932.38500   0.
    65.87750  2931.91500   0.
    67.26500  2931.88000   0.
    68.65250  2931.84500   0.
    71.43000  2931.69750   0.
    72.82000  2931.58500   0.
    74.21000  2931.47250   0.
    76.98750  2931.44500   0.
    78.37500  2931.53000   0.
    79.76250  2931.61500   0.
    82.53750  2931.75500   0.
    83.92500  2931.81000   0.
     6.60134  2937.05984   0.
    20.80435  2932.52560   0.
     3.78758  2946.36592   0.
    15.48523  2940.98228   0.
    29.30091  2934.50364   0.
    23.90594  2939.46561   0.
    40.87322  2931.62711   0.
     1.03219  2951.87344   0.
    10.83406  2946.32292   0.
    20.42668  2943.42459   0.
    48.80952  2930.83467   0.
    35.50309  2935.49258   0.
     7.54365  2949.73854   0.
    28.57967  2939.84283   0.
    15.90963  2945.83181   0.
    44.30452  2933.27820   0.
    -0.12722  2955.42655   0.
    24.47411  2943.04615   0.
     4.45051  2952.86019   0.
    40.01017  2935.22543   0.
    52.75593  2931.58993   0.
    13.75183  2934.27842   0.
    32.31862  2938.44653   0.
     0.40990  2931.04902   0.
    19.20708  2946.27332   0.
    57.19103  2930.55709   0.
    -0.97178  2947.27328   0.
    19.39705  2939.49643   0.
    11.08068  2950.12444   0.
    32.86215  2930.47012   0.
     7.41320  2941.82707   0.
    13.76382  2948.77946   0.
    27.17579  2942.79365   0.
     7.27112  2952.68663   0.
     2.71547  2954.94653   0.
    22.91159  2945.17994   0.
     2.00816  2941.86911   0.
    24.73355  2934.79062   0.
    47.86753  2934.00196   0.
    50.62083  2933.29089   0.
    60.15732  2930.28185   0.
    37.65425  2937.53830   0.
    44.64836  2929.77041   0.
    10.93416  2939.02064   0.
     4.26476  2949.76242   0.
    36.78915  2931.78219   0.
     7.36345  2946.13476   0.
    30.92470  2941.06806   0.
     6.19921  2931.10091   0.
    35.16618  2938.51604   0.
    16.36294  2929.87801   0.
    13.43632  2943.77014   0.
    42.64967  2935.50406   0.
    26.89596  2931.23775   0.
     1.59760  2936.73753   0.
    17.19200  2948.13905   0.
    -0.61497  2957.60981   0.
    26.49360  2937.36117   0.
     9.56799  2951.50953   0.
    17.55858  2943.77119   0.
    55.26825  2932.33039   0.
    22.03247  2936.46128   0.
    16.10828  2937.24515   0.
    22.48452  2941.40733   0.
    20.86327  2946.43955   0.
    29.71126  2937.35408   0.
    32.14062  2935.59882   0.
    45.26358  2935.44707   0.
    29.19256  2942.39482   0.
    25.22337  2944.48902   0.
    25.77440  2940.40763   0.
     5.12787  2951.33100   0.
     9.72036  2943.07255   0.
     0.63027  2944.64860   0.
     5.15669  2954.13690   0.
    33.80274  2940.56791   0.
     1.57076  2956.41210   0.
     9.31000  2947.97928   0.
     9.87726  2933.53233   0.
    53.60824  2932.85261   0.
    40.63972  2936.89193   0.
    13.47285  2946.23828   0.
    37.68088  2934.75035   0.
    46.32767  2931.88185   0.
    18.64740  2941.16071   0.
    13.09413  2950.32980   0.
    18.01744  2935.92389   0.
     0.55332  2948.73049   0.
     5.35766  2947.55011   0.
    42.44669  2933.52960   0.
    57.75733  2932.24094   0.
    23.68300  2931.83870   0.
    19.94397  2947.74183   0.
    61.81887  2931.15328   0.
[...]
POINT_DATA      1414
CELL_DATA      2568
SCALARS Resistivity(ohm.m) double 1
LOOKUP_TABLE default
          1173.46052          1647.75118          2268.35967          1140.27636           524.86998          2194.53347          1367.75625          1566.89135          1534.85430          2025.98525           775.34610          2018.64883           601.36145          2268.75109          2230.68058          1927.48396          1471.89792           394.12005           475.78762          2357.38821          1263.93492          1902.85024          1224.95966           629.53379          1756.65252           524.71569           264.69873          2152.30111          2155.84488          2248.20407           499.96586           530.77606          1564.46593           403.98757           383.39037          1759.01284           683.94955          1010.07719          1188.03425          1639.22242          1710.01436           674.63879           496.91582          2289.92564           358.48371           424.96315          2935.32326           839.11364           613.48887           916.49627          2560.13003          1748.10639          1039.43304          1467.50649          2283.73829           979.10262           390.19829          2205.83046           408.58237          1117.61706           547.00362          2064.65259           386.72336          1868.31402           275.32411          1445.79119          2045.87522          1956.25778           305.59336           798.72579           511.76873           741.75010          1974.64310           436.26997           297.83241          3004.50436          1394.03911           396.79911           304.78941          2751.48219          2601.76492          1499.06040           403.21872           449.39737          1965.74395           871.02840           361.08343          2024.73052           837.52461          1824.33492          1100.35650           387.24146          2210.23799           327.98647          1862.45090          1913.12472           491.89927          1244.73982          2122.04423          1058.61476          1480.32726           556.02079           669.61346           711.45920          1002.27343          1576.35064           510.59706           966.05757          2179.42165          1320.43078           355.16296          1147.84657          2538.54834          1742.89559          1943.09919          1222.71202          1047.88409          1412.65711           473.25658           338.76271          2284.43055          1351.66527          3029.54341           762.64104           462.90589          1983.33494          2404.14219          3285.35919          1799.47834          1498.58909          1986.78907          1126.69298          1175.15560          2210.05219           846.41641          2904.01507           343.75237          1548.02481          1066.33498          1265.78636          1506.93457           523.99508           652.17397          1407.11099          1545.54170           588.42354           442.42498          1404.51172          1841.50811           545.76035          2263.65373          1811.05764           959.40613           655.86976          2249.81830           274.99248          1652.32399           390.40328          2170.53719          1210.23148          1197.25298           521.73420          2288.01527           445.85953          2162.71703           560.63754          1526.82911          1875.85580          1813.33516          1612.28130           689.50023           791.26793           736.76124           282.74106           402.05206           915.76798           885.11255          3683.02135          2695.81307          1160.23677          2213.83777          1450.65014          1906.53261           776.20337           555.77796          1032.89960           941.49002           696.86602           847.43708          2456.44840          1168.94967          2379.48038           644.20867          2618.52113           282.10821           537.13281          2545.75938          2006.72205          1228.92382           432.19741           270.88609           785.32642          1752.54922          1346.05955          1850.35129          1094.53410          4025.24970          2282.84546           409.02531          2214.50101          1250.66083           623.93656           422.67457           357.36975           582.88926          1193.07679          2310.69776           505.02231          1245.42984           537.47272           842.76320          1333.42544          1141.01213           358.90950           648.38190           705.68696           344.00252           589.25920          1205.16414           336.35697          1050.85255          2076.45154          1353.03384          3039.34635          2334.78272          1678.40092          2379.39842          1455.76181          1394.30991          1309.66172          2574.23974           646.69655          1028.81911           445.33966          2419.31348           263.28310          1775.12824           472.69526           384.86945          2088.01332           256.68545          2047.36704          1712.85559           740.16419          1910.90119          1006.78185           621.77262           777.44635           711.56361          2963.49721           584.04270          2159.58846           424.12587           471.82759           417.54491          1632.56968           384.68475          2230.36877           978.69473          2306.51476           989.83823          2100.20850          2405.87453          2157.55976           471.41722          1534.18082          2208.51812           439.82445           653.52072           627.73092           431.65053          1289.19629           280.40090           976.76903           909.90248          2262.05203           491.64229          2377.55850           624.15202           414.82009           913.69251           305.27342          2253.09333           722.00306          1846.54706          2238.82621          1414.15963           547.49254           484.35550           692.38417          1006.88853           428.56874          2462.25461          2535.70272           388.03220          1706.80072          1239.44216          1432.45108          1842.05693           344.00806           752.05997           587.59811           309.12143          2240.77775           752.03885           339.98485           484.11376          1165.56643          2814.80854           490.35117          3394.82228           383.18628           962.85066           402.44785           565.23795          1175.89877           435.15887          1291.82398          1093.34763          2886.52286          1679.24118          2105.61509           553.60152          1566.34595           352.31206           391.81093           631.38588           613.05472          3256.69160           563.41655          2079.11441           365.34260          2046.61498           425.38055           595.88260          1686.23972          1219.20153          1033.74807           421.99939          2110.80495           392.13500          2430.47140           841.88368           364.55858           472.68036          1995.74551           493.22073          1554.20620           334.84415           409.18844           793.47024          1400.92056           903.63080           570.51690          1267.22682           539.63900           361.43330          2280.88942          1740.12868          2678.47641           412.10747          1221.86014          1327.48331          1000.13019           306.43168          2656.35249           389.95375           480.20561           396.04990          1932.26517          1292.97509           376.48683          1661.23959          2348.85368           258.32758          1256.65689           581.44813          1375.90765           438.30503          1508.42989           771.11089           348.80875          1325.37275          1451.56457           379.22862           789.32808           623.00246          1394.51494          1611.09406          1029.12847           572.69867           684.97107          1308.67452          1333.08790          1290.32565           921.11664           534.84355          1002.75498          2221.87583          1591.93220          1476.14117          2114.44149          1014.76614           657.78560          1156.74710          2456.69932           639.28542           915.69028           692.18868          1704.78113           983.37905           388.10196          2131.26531          1425.97257          1282.74562           294.51359          1693.82554           577.10964          1310.74289           440.26004          1316.09608           419.89214           373.33777          1996.63185          1079.15043          1385.61067          1459.87336           629.77005          1783.82129          1347.53120          3663.70934           608.85984          1177.29271          2128.19775          1149.20688          1122.61326          1206.11744          1193.39867          4385.76907           910.00363          3395.10811          1509.68479          1537.84294          1244.09277          1734.97646           863.71194          2084.95444           984.71125          1376.66853           393.37341          1790.16169          1286.23215           947.09858          1359.54774          2114.73702           870.75552           847.14785          1206.62324          1782.63547          1616.54178           780.98638          1707.05745           917.27031           297.09190          1823.23529          4062.90401          1067.96631           402.23077          1525.91081           731.27176          1081.44841          1990.97222           529.47649           490.21083          2071.88400          2706.96896          1286.09540           340.85339           642.03720           807.23104          1245.13473          1162.95777          1105.71969          1395.99821           856.13520          1349.98371           815.48922          1107.43188          2541.51562          1688.51058           642.28690           313.54949           593.87107          1287.92928           820.28382          1243.31363          3808.22572          1248.43744           374.13412           491.68599          1295.18203          1225.30889           906.01533           432.04970          3279.26772          1290.31854           388.60449          3432.57451          2210.31349           394.37335          1375.56837          1228.15098          1121.76029          1217.65874          1124.69429           593.22704          1615.06269          1328.55484          1348.79632          1333.52007           747.76209          1753.31352           397.62782          1249.40487           632.71460           393.16133           767.05014          1651.12045          1151.13788           999.64032           399.94285           421.59999          1619.72198          1182.97303          4057.51168          4100.53386          3265.25038          1999.00693          2037.68827          2109.49839          3698.25344          4946.90827           633.29030          4546.09243           391.30799          1152.71468          1457.72420           647.34240          3620.91305          5050.57677          1274.05176           481.93088          2125.15880          2680.56423           814.70613           830.83523          1435.70583          4510.25365          1549.08709          2166.83906           942.22331           604.34111          1379.36684          1580.73694           474.76892          3341.24564           460.73278          1387.03646          5257.65808          3987.18710          1915.59347          4789.49143           281.74211           777.04545           436.87904          1968.10980          2701.38535          1813.76988          3430.76662          1878.16610          2657.02819           786.19579          1625.30046          1387.43097          2049.16414          7961.75374          3475.08671           906.32758          4996.01994          4365.84116           809.76748           612.22469          5053.55459          2866.86496          4466.87237          4902.68346          1452.63045           984.05825           597.18356           543.01695           888.66801          4525.22522          1702.34032          1091.38250          1691.69082           311.39539           998.20688          1824.48762          3460.32132          1159.42001           834.33011           666.97552           805.21095          1594.89399          1459.00254           908.64101          3041.88793          2872.08817          3279.22047          3203.55444          5988.06132          4314.47885          2592.74300           559.54859          4097.50231          1280.92764          1659.12094           623.70092          1402.12827           927.20899           359.47532          6412.85892          5164.75592          1531.75225          1608.14943          2759.13066          2351.02395          3096.35062          2733.68406          1020.34717          1391.68364           538.18006           763.29486           415.33705           471.51432           817.08164           632.07465          2100.19209          4411.23548          3579.89730          1554.54657          2291.81182          1394.95283          1637.59890          8288.04893          5364.85776          1854.57276           440.06808           573.35870          5223.50188           645.45321          3780.32145          4350.53652          1001.28902          2379.52670           693.61128           930.13650          1012.62266          2401.78605          2441.93645          2592.05178           638.52912           495.14313           984.34954           366.39372           610.56451           466.12756          3357.72695          5320.73820           488.92470          3020.34269           833.54841          2687.54110          1077.44152           603.80174           596.81387           663.58130           682.62641          2024.48572           734.39622          1477.54634           668.39024          2618.67495          1884.01513          4160.12564          2770.34402           645.08496           511.58958           325.23669          2956.55202           804.20473           753.67556          1347.28560          2605.22883           699.45146           875.34357           549.41085          1347.60888          1063.54051          1884.50415          1439.76143           620.52829           743.96236           696.02046          2668.33089          2078.99866          1236.67334          7657.62310          1030.93705           917.79864           912.68339          1741.33605          2801.75844          1618.74511          1491.52478          1645.93293          2804.04366           692.72385          6970.17239          1539.15118          2706.36012           811.09490           989.34947          4253.81712          2812.67205           743.15948          1175.86122          3140.12800           532.13599           534.55125          1236.92391          2759.64027          5939.99561          1556.59238          7376.39715          1544.28218          1623.50783          1571.77223          1042.61025           453.16957           752.35937          2698.55862           647.47515          4078.96028           634.06930          3359.71204           830.09857           725.83943          1485.64748          2066.19826          2812.65359          4891.99864          2793.89037          1369.88776          1820.69960          1315.09198          5059.14539          7665.19095          2024.10109          1008.91831          2759.05964           634.37086           988.93578           838.10712          2713.38120           985.94742          1022.96747           520.22846           629.67176          3687.51197          1196.84919           793.05211          5932.45788          4011.84217          2177.49712          1343.06739          7861.56965           804.53939          2588.76736          2921.73827          2234.55325          1302.83416          3056.33694          5440.29832          1779.16497           424.64975           706.81618           847.19605          2063.20478          1814.46506           728.49107           679.82160          6223.29048           743.55153          1246.43748          1910.62851          3853.21277          5191.64404           466.34572          1317.56227           914.27871          1033.79158          2142.19371           821.67469           848.56334          1792.88973           844.90301           608.42935           414.36989           806.35513          2898.29098           444.17232          2903.79346          1706.61395          2057.41551          1372.73147          1808.75827          1629.68503           421.47764          4360.21327          1729.96322          1967.10017          1978.62097          2203.09106          5539.48023           980.45049          5594.11748           569.64753           664.37753          1651.42646           998.12434          7810.73439          2615.27481           857.30177          1773.33377          4149.58698          3169.19563           577.15426          5215.80259          1582.58054          2754.41730          1155.57789          3406.05815          3881.72785           464.76291          3393.69968          3858.83739          2613.76567          5591.01295           887.98812           748.02939          1002.82175          2324.11398           488.40358         10089.25159          3921.97270           610.09843          1695.94729          1754.35780          2125.10827           753.41194           987.67643         12793.86493           621.05575          2359.22434          1296.71331           534.52661           771.74247          2578.62560          5930.97388          6087.37626          1489.52755          2292.81821          2609.43034          4820.79388           670.99887          1390.23886          2200.47410          2090.24253          5369.53257           565.72952           990.85682          2810.98693           903.87834          3644.24904          2360.87170          7059.22973          2701.34451          1232.22633          1164.91051           650.38980          5273.91333          7543.78206          2274.26177           302.26179           389.01652           840.43225           772.63759          6651.01357          1275.99531          2010.97151          3007.86145          2431.19183          5513.91046          5845.84110           377.78087           595.81058           851.13631          1264.04676           643.83759          4212.13475          3892.62162          1540.59350           653.71054           999.44682          2220.82947          3764.09068          2343.43551          2137.01566          1014.43212          3842.03094          7200.52941           510.49837           723.67191          1780.65719          7587.99624          2022.40166          2769.63176          4687.34129           742.25846          1999.60071          4365.77750           534.69500          1543.74468           988.36357          6094.41533           942.82369          1813.55364          3063.24792          5257.18331          5350.60979          6299.17561          4540.09067          4263.99066          1713.00857           891.93292          3329.79974         10535.33479           634.82976          2561.13987          2649.15811           286.13452          2399.69590          3501.48766          2596.83531           429.25275          4508.20577           799.28858          3171.07277          4809.97225          1978.70234           784.33080          2983.92995          3495.59388          5334.74832          6462.78923          5683.51706           588.31883           652.97249          1243.71352          4835.28929          1126.12792          2835.06407           877.83767           598.141