# vtk DataFile Version 3.0
Output from R2
ASCII
DATASET UNSTRUCTURED_GRID
POINTS       1414 double
     0.00000  2968.10000   0.
     1.54000  2966.60000   0.
     3.08000  2964.90000   0.
     4.61000  2964.10000   0.
     6.15000  2963.30000   0.
     7.69000  2962.60000   0.
     9.23000  2961.50000   0.
    10.76000  2960.70000   0.
    12.30000  2960.00000   0.
    13.84000  2959.30000   0.
    15.38000  2958.70000   0.
    16.91000  2958.10000   0.
    18.45000  2957.30000   0.
    19.99000  2956.60000   0.
    21.52000  2955.80000   0.
    23.06000  2955.00000   0.
    24.60000  2954.30000   0.
    26.14000  2953.50000   0.
    27.68000  2952.80000   0.
    29.21000  2951.90000   0.
    30.75000  2951.10000   0.
    32.29000  2950.20000   0.
    33.83000  2949.50000   0.
    35.36000  2948.70000   0.
    36.90000  2948.10000   0.
    38.44000  2947.30000   0.
    39.98000  2946.70000   0.
    41.51000  2946.10000   0.
    43.05000  2945.50000   0.
    44.59000  2945.10000   0.
    46.13000  2944.50000   0.
    47.66000  2944.10000   0.
    49.20000  2943.60000   0.
    50.74000  2943.40000   0.
    52.28000  2943.00000   0.
    53.81000  2942.50000   0.
    55.35000  2942.10000   0.
    56.89000  2941.60000   0.
    58.43000  2941.00000   0.
    59.96000  2940.60000   0.
    61.50000  2940.10000   0.
    63.04000  2939.50000   0.
    64.58000  2939.10000   0.
    66.11000  2939.20000   0.
    67.65000  2939.20000   0.
    69.19000  2939.10000   0.
    70.73000  2938.90000   0.
    72.26000  2938.60000   0.
    73.80000  2938.30000   0.
    75.34000  2938.50000   0.
    76.88000  2938.70000   0.
    78.41000  2938.60000   0.
    79.95000  2938.80000   0.
    81.49000  2938.90000   0.
    83.03000  2939.10000   0.
    84.56000  2939.10000   0.
     3.42000  2957.55000   0.
     8.97000  2954.51000   0.
    14.52000  2951.86000   0.
    20.07000  2949.38000   0.
    25.63000  2946.59000   0.
    31.18000  2943.67000   0.
    36.73000  2940.99000   0.
    42.28000  2938.62000   0.
    47.83000  2936.87000   0.
    53.39000  2935.46000   0.
    58.94000  2933.69000   0.
    64.49000  2931.95000   0.
    70.04000  2931.81000   0.
    75.60000  2931.36000   0.
    81.15000  2931.70000   0.
     0.51333  2967.60000   0.
     1.02667  2967.10000   0.
     2.05333  2966.03333   0.
     2.56667  2965.46667   0.
     3.59000  2964.63333   0.
     4.10000  2964.36667   0.
     5.12333  2963.83333   0.
     5.63667  2963.56667   0.
     6.66333  2963.06667   0.
     7.17667  2962.83333   0.
     8.20333  2962.23333   0.
     8.71667  2961.86667   0.
     9.74000  2961.23333   0.
    10.25000  2960.96667   0.
    11.27333  2960.46667   0.
    11.78667  2960.23333   0.
    12.81333  2959.76667   0.
    13.32667  2959.53333   0.
    14.35333  2959.10000   0.
    14.86667  2958.90000   0.
    15.89000  2958.50000   0.
    16.40000  2958.30000   0.
    17.42333  2957.83333   0.
    17.93667  2957.56667   0.
    18.96333  2957.06667   0.
    19.47667  2956.83333   0.
    20.50000  2956.33333   0.
    21.01000  2956.06667   0.
    22.03333  2955.53333   0.
    22.54667  2955.26667   0.
    23.57333  2954.76667   0.
    24.08667  2954.53333   0.
    25.11333  2954.03333   0.
    25.62667  2953.76667   0.
    26.65333  2953.26667   0.
    27.16667  2953.03333   0.
    28.19000  2952.50000   0.
    28.70000  2952.20000   0.
    29.72333  2951.63333   0.
    30.23667  2951.36667   0.
    31.26333  2950.80000   0.
    31.77667  2950.50000   0.
    32.80333  2949.96667   0.
    33.31667  2949.73333   0.
    34.34000  2949.23333   0.
    34.85000  2948.96667   0.
    35.87333  2948.50000   0.
    36.38667  2948.30000   0.
    37.41333  2947.83333   0.
    37.92667  2947.56667   0.
    38.95333  2947.10000   0.
    39.46667  2946.90000   0.
    40.49000  2946.50000   0.
    41.00000  2946.30000   0.
    42.02333  2945.90000   0.
    42.53667  2945.70000   0.
    43.56333  2945.36667   0.
    44.07667  2945.23333   0.
    45.10333  2944.90000   0.
    45.61667  2944.70000   0.
    46.64000  2944.36667   0.
    47.15000  2944.23333   0.
    48.17333  2943.93333   0.
    48.68667  2943.76667   0.
    49.71333  2943.53333   0.
    50.22667  2943.46667   0.
    51.25333  2943.26667   0.
    51.76667  2943.13333   0.
    52.79000  2942.83333   0.
    53.30000  2942.66667   0.
    54.32333  2942.36667   0.
    54.83667  2942.23333   0.
    55.86333  2941.93333   0.
    56.37667  2941.76667   0.
    57.40333  2941.40000   0.
    57.91667  2941.20000   0.
    58.94000  2940.86667   0.
    59.45000  2940.73333   0.
    60.47333  2940.43333   0.
    60.98667  2940.26667   0.
    62.01333  2939.90000   0.
    62.52667  2939.70000   0.
    63.55333  2939.36667   0.
    64.06667  2939.23333   0.
    65.34500  2939.15000   0.
    66.88000  2939.20000   0.
    68.42000  2939.15000   0.
    69.70333  2939.03333   0.
    70.21667  2938.96667   0.
    71.24000  2938.80000   0.
    71.75000  2938.70000   0.
    72.77333  2938.50000   0.
    73.28667  2938.40000   0.
    74.31333  2938.36667   0.
    74.82667  2938.43333   0.
    75.85333  2938.56667   0.
    76.36667  2938.63333   0.
    77.64500  2938.65000   0.
    78.92333  2938.66667   0.
    79.43667  2938.73333   0.
    80.72000  2938.85000   0.
    82.00333  2938.96667   0.
    82.51667  2939.03333   0.
    83.79500  2939.10000   0.
     0.08400  2959.57200   0.
     1.19600  2958.89800   0.
     2.30800  2958.22400   0.
     4.53000  2956.94200   0.
     5.64000  2956.33400   0.
     6.75000  2955.72600   0.
     7.86000  2955.11800   0.
    10.35750  2953.84750   0.
    11.74500  2953.18500   0.
    13.13250  2952.52250   0.
    15.90750  2951.24000   0.
    17.29500  2950.62000   0.
    18.68250  2950.00000   0.
    21.18200  2948.82200   0.
    22.29400  2948.26400   0.
    23.40600  2947.70600   0.
    24.51800  2947.14800   0.
    26.74000  2946.00600   0.
    27.85000  2945.42200   0.
    28.96000  2944.83800   0.
    30.07000  2944.25400   0.
    32.56750  2943.00000   0.
    33.95500  2942.33000   0.
    35.34250  2941.66000   0.
    38.11750  2940.39750   0.
    39.50500  2939.80500   0.
    40.89250  2939.21250   0.
    43.66750  2938.18250   0.
    45.05500  2937.74500   0.
    46.44250  2937.30750   0.
    49.22000  2936.51750   0.
    50.61000  2936.16500   0.
    52.00000  2935.81250   0.
    54.77750  2935.01750   0.
    56.16500  2934.57500   0.
    57.55250  2934.13250   0.
    60.32750  2933.25500   0.
    61.71500  2932.82000   0.
    63.10250  2932.38500   0.
    65.87750  2931.91500   0.
    67.26500  2931.88000   0.
    68.65250  2931.84500   0.
    71.43000  2931.69750   0.
    72.82000  2931.58500   0.
    74.21000  2931.47250   0.
    76.98750  2931.44500   0.
    78.37500  2931.53000   0.
    79.76250  2931.61500   0.
    82.53750  2931.75500   0.
    83.92500  2931.81000   0.
     6.60134  2937.05984   0.
    20.80435  2932.52560   0.
     3.78758  2946.36592   0.
    15.48523  2940.98228   0.
    29.30091  2934.50364   0.
    23.90594  2939.46561   0.
    40.87322  2931.62711   0.
     1.03219  2951.87344   0.
    10.83406  2946.32292   0.
    20.42668  2943.42459   0.
    48.80952  2930.83467   0.
    35.50309  2935.49258   0.
     7.54365  2949.73854   0.
    28.57967  2939.84283   0.
    15.90963  2945.83181   0.
    44.30452  2933.27820   0.
    -0.12722  2955.42655   0.
    24.47411  2943.04615   0.
     4.45051  2952.86019   0.
    40.01017  2935.22543   0.
    52.75593  2931.58993   0.
    13.75183  2934.27842   0.
    32.31862  2938.44653   0.
     0.40990  2931.04902   0.
    19.20708  2946.27332   0.
    57.19103  2930.55709   0.
    -0.97178  2947.27328   0.
    19.39705  2939.49643   0.
    11.08068  2950.12444   0.
    32.86215  2930.47012   0.
     7.41320  2941.82707   0.
    13.76382  2948.77946   0.
    27.17579  2942.79365   0.
     7.27112  2952.68663   0.
     2.71547  2954.94653   0.
    22.91159  2945.17994   0.
     2.00816  2941.86911   0.
    24.73355  2934.79062   0.
    47.86753  2934.00196   0.
    50.62083  2933.29089   0.
    60.15732  2930.28185   0.
    37.65425  2937.53830   0.
    44.64836  2929.77041   0.
    10.93416  2939.02064   0.
     4.26476  2949.76242   0.
    36.78915  2931.78219   0.
     7.36345  2946.13476   0.
    30.92470  2941.06806   0.
     6.19921  2931.10091   0.
    35.16618  2938.51604   0.
    16.36294  2929.87801   0.
    13.43632  2943.77014   0.
    42.64967  2935.50406   0.
    26.89596  2931.23775   0.
     1.59760  2936.73753   0.
    17.19200  2948.13905   0.
    -0.61497  2957.60981   0.
    26.49360  2937.36117   0.
     9.56799  2951.50953   0.
    17.55858  2943.77119   0.
    55.26825  2932.33039   0.
    22.03247  2936.46128   0.
    16.10828  2937.24515   0.
    22.48452  2941.40733   0.
    20.86327  2946.43955   0.
    29.71126  2937.35408   0.
    32.14062  2935.59882   0.
    45.26358  2935.44707   0.
    29.19256  2942.39482   0.
    25.22337  2944.48902   0.
    25.77440  2940.40763   0.
     5.12787  2951.33100   0.
     9.72036  2943.07255   0.
     0.63027  2944.64860   0.
     5.15669  2954.13690   0.
    33.80274  2940.56791   0.
     1.57076  2956.41210   0.
     9.31000  2947.97928   0.
     9.87726  2933.53233   0.
    53.60824  2932.85261   0.
    40.63972  2936.89193   0.
    13.47285  2946.23828   0.
    37.68088  2934.75035   0.
    46.32767  2931.88185   0.
    18.64740  2941.16071   0.
    13.09413  2950.32980   0.
    18.01744  2935.92389   0.
     0.55332  2948.73049   0.
     5.35766  2947.55011   0.
    42.44669  2933.52960   0.
    57.75733  2932.24094   0.
    23.68300  2931.83870   0.
    19.94397  2947.74183   0.
    61.81887  2931.15328   0.
[...]
POINT_DATA      1414
CELL_DATA      2568
SCALARS Resistivity(ohm.m) double 1
LOOKUP_TABLE default
          1191.49940          1620.90258          2202.92078          1148.73386           494.75537          2170.88651          1392.43573          1641.00205          1502.54917          1995.25261           811.70625          2001.26542           582.74720          2321.33538          2281.80267          1946.26637          1433.58953           435.32108           472.90350          2351.01526          1267.49091          1928.39122          1201.76448           591.40648          1731.86345           486.83094           246.55346          2131.32068          2192.28059          2163.93311           489.63306           490.58702          1534.57519           401.49347           378.82063          1761.79164           702.30245          1033.08724          1160.26377          1652.35146          1693.60373           694.32071           484.92213          2347.93861           342.70384           413.86051          3034.88066           882.89059           607.74823           907.05418          2587.32145          1727.06136          1120.17006          1427.47610          2118.31133           988.03577           375.01334          2145.10747           430.58825          1203.74827           512.28506          2085.66130           431.61022          1912.88975           254.24542          1407.77713          2029.53942          1931.48428           288.89597           773.86307           471.41035           758.09094          1989.24062           420.47524           311.52185          3085.98583          1423.82458           435.35742           323.71320          2836.43748          2657.85232          1594.70798           422.73355           427.43176          1970.59576           846.43981           345.30339          2045.53624           843.72182          1812.09713          1134.83375           373.33881          2171.84724           355.60211          1829.53801          1915.58506           539.59615          1337.97922          2156.92577          1081.08862          1478.80078           526.63113           647.54980           732.88550          1051.00114          1545.02558           485.83055          1030.66104          2058.61009          1418.02436           382.96650          1183.11065          2613.38374          1753.06320          1953.90814          1176.71678          1077.67555          1376.00926           467.36906           323.44115          2280.23323          1362.77886          3127.47602           762.01472           510.06426          1967.73653          2468.70219          3376.45602          1838.93239          1552.71481          1957.06572          1120.46263          1135.19759          2247.81784           879.98415          2978.32766           376.68857          1512.38228          1076.34405          1220.22787          1482.25473           498.50322           629.28140          1459.56804          1510.65647           561.49337           447.15109          1394.25938          1821.79185           516.88113          2149.25202          1800.03889          1010.78528           679.50692          2264.25883           279.98335          1748.29424           399.89593          2212.92347          1169.65067          1296.73418           501.72894          2333.47463           445.60293          2104.26411           523.85602          1556.56666          1885.06845          1808.11786          1578.76504           716.85464           807.70283           721.23876           267.80091           413.65029           972.74210           865.66821          3716.86462          2769.19104          1228.31493          2215.41944          1571.08488          1879.94866           769.17645           522.95117          1033.41016           926.20085           675.92392           898.20969          2532.71012          1133.71308          2443.95783           626.10878          2699.77870           262.83266           527.63275          2613.27749          1973.69852          1248.47196           431.28511           277.09132           812.94650          1785.76484          1306.32262          1885.68587          1100.22404          4020.82586          2136.38571           405.15578          2117.46227          1222.14813           598.44153           428.72858           345.83006           551.73886          1203.29567          2373.59316           467.70513          1282.81610           522.61444           868.83156          1416.94749          1193.79275           353.45783           632.08026           683.80847           374.99559           574.22458          1159.61780           319.48418          1123.90031          2010.68547          1349.14903          3101.91570          2351.89033          1774.90795          2407.62369          1579.17928          1478.97367          1298.27393          2658.16562           643.28691          1019.92184           429.45786          2479.95156           259.07845          1755.58115           462.63033           432.51563          2040.77314           247.89263          2016.40145          1791.27286           719.09366          1887.88568          1055.73347           624.67202           758.20160           707.31955          3022.19723           550.78651          2092.04953           472.45027           457.96911           433.73252          1726.12678           372.34888          2200.75549           962.07068          2154.92559          1062.13195          2048.90632          2463.14538          2149.74008           442.96127          1522.01277          2107.86952           433.05189           676.00979           638.94900           435.66816          1244.85558           273.67390          1011.07455           974.67231          2221.07449           486.35410          2382.60874           607.88080           459.52941           958.45844           305.86196          2288.03925           698.17038          1822.36651          2234.21282          1476.09883           527.58324           468.24387           672.41404          1009.63782           437.86166          2481.73043          2616.95693           403.35208          1685.84105          1202.72770          1403.27478          1839.49490           378.11835           729.31185           560.68801           290.79974          2224.58993           789.05150           339.86684           468.01036          1257.10818          2875.41831           454.33143          3448.07635           389.78374           975.46945           441.52239           551.46892          1153.34898           441.66730          1246.54383          1086.37904          2978.60199          1660.12581          2074.39845           537.63209          1656.61853           344.14203           399.51944           613.86710           587.73272          3327.27894           534.29051          2087.72427           408.00077          2020.00791           453.29519           572.20840          1660.71486          1295.89379          1120.02191           435.68438          2105.38190           441.39754          2505.40670           824.90830           377.89301           471.75470          1990.55054           479.49740          1620.19788           319.10139           400.12205           832.84487          1358.14046           962.22049           552.02205          1228.08998           521.56487           366.34080          2271.33006          1796.11693          2743.97861           426.79558          1178.30801          1298.93697          1050.51926           285.14720          2744.60433           402.32855           455.25284           420.28577          1924.80117          1269.54647           421.91052          1637.71043          2391.77392           255.23326          1213.88248           550.56162          1496.05228           443.79900          1613.19907           745.21830           337.32385          1282.14939          1470.49375           423.03190           832.38556           602.24552          1486.90582          1578.61619          1113.65490           537.51479           661.89110          1316.52334          1290.16533          1308.72005           923.63598           502.50314          1004.14337          2208.15001          1617.26688          1531.32430          2137.34146          1097.06135           618.85049          1165.97675          2456.33829           659.51339           901.06880           699.88429          1751.50427          1061.52097           386.57317          2139.29985          1527.28283          1329.70283           274.40638          1753.42072           545.39378          1274.34666           477.80327          1352.65270           462.93144           419.22922          1932.17670          1136.73651          1362.36960          1495.34811           629.78494          1771.87369          1420.24374          3709.73256           573.85340          1171.21566          2011.88900          1133.38272          1195.05782          1160.69738          1182.09053          4343.68701           903.78164          3466.58242          1529.18674          1646.91509          1310.40424          1802.41106           878.36945          2115.95163           978.37318          1485.77439           423.39812          1763.12699          1280.87531           937.78927          1475.69324          2070.45321           875.17778           900.80124          1312.89736          1809.41143          1663.18942           783.32630          1678.10730           946.88980           272.76255          1797.96063          4049.79192          1159.55989           423.50696          1639.80932           737.88754          1072.48289          1951.47461           520.45823           530.56246          2030.06260          2775.27825          1401.99189           357.87641           666.27403           817.52479          1233.68522          1266.95491          1094.58470          1354.06374           844.62065          1306.41063           804.84309          1156.30971          2600.99380          1658.46909           652.59383           324.05570           568.02016          1353.36143           815.59389          1306.50791          3813.83853          1259.41319           365.99354           487.67905          1413.03864          1271.01943           944.47236           419.46627          3330.30983          1246.21473           378.00020          3466.11708          2230.29214           410.92323          1419.11050          1223.99838          1136.65073          1326.50742          1154.46614           576.00609          1719.74036          1283.90163          1304.70547          1434.72179           728.96980          1829.33645           433.17688          1338.17594           612.21390           418.24137           751.81882          1660.08190          1190.90677           988.99362           428.11817           407.24416          1611.66180          1217.52380          3938.97382          4221.93107          3317.12227          2154.52311          2129.93945          2156.66660          3490.80268          4892.94477           617.57757          4679.00980           429.09406          1112.44162          1514.16096           639.88780          3466.61070          4955.56945          1336.23241           503.49339          2057.32691          2705.53321           797.10834           842.48403          1511.91412          4448.36088          1403.75986          2038.03752           926.62675           605.05817          1423.95761          1621.30701           491.20518          3480.85435           475.93925          1496.99299          5328.10091          3995.93964          1763.33939          4755.32657           286.79856           799.97530           454.96903          2085.49510          2719.26768          1836.30541          3300.45433          1841.28452          2565.85003           796.72790          1648.13472          1370.07686          1881.44658          8554.91546          3487.77608           949.77455          4861.62518          4277.77785           789.63134           635.27314          5090.50785          2752.15053          4378.20245          4646.81676          1529.99292           922.93906           619.86693           539.87451           853.40060          4370.10888          1679.63949          1047.52211          1682.15271           329.26040          1076.75327          1903.07454          3578.27592          1065.92960           827.36560           699.44156           809.85813          1658.86471          1530.46274           867.80066          3168.60783          2941.92451          3398.36788          3359.62283          5651.93620          4258.70168          2719.61925           605.98546          3980.64082          1238.40584          1689.39011           661.90863          1481.66896           941.22143           372.96195          5801.82848          5517.46020          1590.45535          1629.67689          2793.35871          2214.42341          2861.70918          2782.98738           962.48714          1264.98832           569.39086           786.73566           436.06521           483.81602           837.73254           619.43533          2022.39418          4448.28465          3782.93696          1559.22879          2311.42927          1468.88807          1742.01059          8107.44893          5245.99898          1917.24805           448.57789           573.70609          5101.78925           687.05927          3631.60449          3872.63798          1054.19867          2287.85100           683.84688           912.71792          1058.30664          2312.02958          2414.65855          2508.21683           614.99569           555.45583          1136.18852           356.41408           590.41804           510.31585          3466.78971          5342.84580           485.01660          2996.81805           858.54349          2553.32945          1163.40804           648.52170           633.50662           711.96051           667.80139          1948.24546           754.50600          1519.82101           693.25121          2444.60761          1826.33118          4388.20861          2352.99433           652.37703           538.44876           332.25601          3146.84573           744.34180           741.80247          1391.36269          2569.03807           739.97552           851.12041           506.17665          1323.49939          1054.29996          1786.84167          1414.96412           615.05951           713.44685           697.12482          2607.49324          2178.43955          1280.02032          7590.36528          1052.03386           981.14650           971.75733          1630.05321          2748.41910          1620.14915          1515.81913          1639.96925          2673.84802           648.90323          7034.36841          1523.92038          2699.98078           880.16327          1150.50066          4297.31139          2765.28940           743.33733          1141.68638          3253.82044           488.92777           511.01654          1322.06134          2426.36277          5446.63571          1484.73107          7152.83797          1476.15911          1737.57724          1599.59332          1139.09821           451.28207           720.72012          2793.60621           675.63706          4178.97575           609.78305          3395.43535           786.41991           747.19101          1454.51746          1980.44435          2974.73505          5150.08915          2660.66285          1399.33666          1804.79017          1354.60212          5129.35034          7520.65358          1922.64135          1011.45483          2741.92985           632.91102          1111.85750           864.81592          2931.87209          1116.28071          1044.29231           537.63855           611.77930          3400.63785          1159.52017           781.67202          6012.80669          3897.56588          2215.04837          1423.31801          7475.72714           792.02676          2615.62811          3109.50743          2056.58441          1292.41176          3011.09138          5302.63191          2011.85931           438.96672           701.72903           919.11367          2067.61654          1781.85186           713.67433           685.57260          6176.22225           726.89441          1229.57150          1869.75567          3806.83554          5635.44754           492.71034          1452.25349           894.14876          1133.41752          2128.47026           776.66321           868.23797          1574.24226           862.08604           587.06253           448.53137           852.99295          2988.66510           467.17214          2991.84006          1929.36053          2056.03853          1384.73387          1872.49757          1638.76598           459.33666          4261.51503          1552.72622          1893.84281          1901.61937          2348.98389          6250.32001           916.84115          5360.65018           538.64435           674.27026          1515.23850          1118.21944          7623.31507          2620.53627           924.31591          1690.58993          4053.14202          3260.23716           592.68454          5487.50039          1600.98737          2478.35798          1092.97546          3388.12320          4041.76040           468.69737          3564.33687          3853.15906          2898.49615          6012.79182           867.66176           809.05888          1114.38880          2259.22895           472.85639         10801.95113          3909.62309           615.07449          1789.02556          1711.14230          2117.60805           749.69725          1123.60477         13107.82783           691.03456          2522.43267          1405.94074           495.32974           783.89362          2416.59572          5791.61899          5976.51962          1538.44729          2328.41846          2617.25448          4739.47083           709.37355          1427.64770          2404.60581          1919.17082          5491.84551           587.97589          1114.97405          2696.85678           861.90876          3443.55338          2503.79247          6748.48061          2885.91597          1270.03713          1185.08409           622.23942          5766.57879          7260.63043          2167.22510           265.94360           397.56059           800.20436           822.53884          6462.98922          1307.18334          1968.08184          3188.50677          2412.54473          5695.68487          6078.34808           360.20068           568.33428           812.14539          1242.88395           639.56161          4393.38464          3917.15023          1535.68748           712.92947          1062.08101          2275.62328          3676.62553          2524.89299          1955.15785           988.33840          3838.34536          7449.67589           467.87251           720.55188          1763.11840          7267.09901          2157.31166          2806.15195          4814.52975           769.01082          1940.66764          4398.35579           533.66459          1548.06200          1020.82949          6843.22912           932.78923          1776.17323          3097.78677          5017.36470          5208.47896          6062.60200          4697.32919          4189.35887          1705.27658           909.57771          3296.22197         11420.54221           618.90907          2345.06852          2906.42050           269.53624          2286.19069          3880.65444          2712.69647           412.21077          4516.22545           852.68003          3250.79393          4538.88477          1845.42359           754.84756          2756.04309          3495.67240          5464.84317          6317.67964          5479.55051           615.60829           637.11801          1343.96902          4998.67187          1137.09675          2585.86291           929.29824           617.701