# vtk DataFile Version 3.0
Output from R2
ASCII
DATASET UNSTRUCTURED_GRID
POINTS       1414 double
     0.00000  2968.10000   0.
     1.54000  2966.60000   0.
     3.08000  2964.90000   0.
     4.61000  2964.10000   0.
     6.15000  2963.30000   0.
     7.69000  2962.60000   0.
     9.23000  2961.50000   0.
    10.76000  2960.70000   0.
    12.30000  2960.00000   0.
    13.84000  2959.30000   0.
    15.38000  2958.70000   0.
    16.91000  2958.10000   0.
    18.45000  2957.30000   0.
    19.99000  2956.60000   0.
    21.52000  2955.80000   0.
    23.06000  2955.00000   0.
    24.60000  2954.30000   0.
    26.14000  2953.50000   0.
    27.68000  2952.80000   0.
    29.21000  2951.90000   0.
    30.75000  2951.10000   0.
    32.29000  2950.20000   0.
    33.83000  2949.50000   0.
    35.36000  2948.70000   0.
    36.90000  2948.10000   0.
    38.44000  2947.30000   0.
    39.98000  2946.70000   0.
    41.51000  2946.10000   0.
    43.05000  2945.50000   0.
    44.59000  2945.10000   0.
    46.13000  2944.50000   0.
    47.66000  2944.10000   0.
    49.20000  2943.60000   0.
    50.74000  2943.40000   0.
    52.28000  2943.00000   0.
    53.81000  2942.50000   0.
    55.35000  2942.10000   0.
    56.89000  2941.60000   0.
    58.43000  2941.00000   0.
    59.96000  2940.60000   0.
    61.50000  2940.10000   0.
    63.04000  2939.50000   0.
    64.58000  2939.10000   0.
    66.11000  2939.20000   0.
    67.65000  2939.20000   0.
    69.19000  2939.10000   0.
    70.73000  2938.90000   0.
    72.26000  2938.60000   0.
    73.80000  2938.30000   0.
    75.34000  2938.50000   0.
    76.88000  2938.70000   0.
    78.41000  2938.60000   0.
    79.95000  2938.80000   0.
    81.49000  2938.90000   0.
    83.03000  2939.10000   0.
    84.56000  2939.10000   0.
     3.42000  2957.55000   0.
     8.97000  2954.51000   0.
    14.52000  2951.86000   0.
    20.07000  2949.38000   0.
    25.63000  2946.59000   0.
    31.18000  2943.67000   0.
    36.73000  2940.99000   0.
    42.28000  2938.62000   0.
    47.83000  2936.87000   0.
    53.39000  2935.46000   0.
    58.94000  2933.69000   0.
    64.49000  2931.95000   0.
    70.04000  2931.81000   0.
    75.60000  2931.36000   0.
    81.15000  2931.70000   0.
     0.51333  2967.60000   0.
     1.02667  2967.10000   0.
     2.05333  2966.03333   0.
     2.56667  2965.46667   0.
     3.59000  2964.63333   0.
     4.10000  2964.36667   0.
     5.12333  2963.83333   0.
     5.63667  2963.56667   0.
     6.66333  2963.06667   0.
     7.17667  2962.83333   0.
     8.20333  2962.23333   0.
     8.71667  2961.86667   0.
     9.74000  2961.23333   0.
    10.25000  2960.96667   0.
    11.27333  2960.46667   0.
    11.78667  2960.23333   0.
    12.81333  2959.76667   0.
    13.32667  2959.53333   0.
    14.35333  2959.10000   0.
    14.86667  2958.90000   0.
    15.89000  2958.50000   0.
    16.40000  2958.30000   0.
    17.42333  2957.83333   0.
    17.93667  2957.56667   0.
    18.96333  2957.06667   0.
    19.47667  2956.83333   0.
    20.50000  2956.33333   0.
    21.01000  2956.06667   0.
    22.03333  2955.53333   0.
    22.54667  2955.26667   0.
    23.57333  2954.76667   0.
    24.08667  2954.53333   0.
    25.11333  2954.03333   0.
    25.62667  2953.76667   0.
    26.65333  2953.26667   0.
    27.16667  2953.03333   0.
    28.19000  2952.50000   0.
    28.70000  2952.20000   0.
    29.72333  2951.63333   0.
    30.23667  2951.36667   0.
    31.26333  2950.80000   0.
    31.77667  2950.50000   0.
    32.80333  2949.96667   0.
    33.31667  2949.73333   0.
    34.34000  2949.23333   0.
    34.85000  2948.96667   0.
    35.87333  2948.50000   0.
    36.38667  2948.30000   0.
    37.41333  2947.83333   0.
    37.92667  2947.56667   0.
    38.95333  2947.10000   0.
    39.46667  2946.90000   0.
    40.49000  2946.50000   0.
    41.00000  2946.30000   0.
    42.02333  2945.90000   0.
    42.53667  2945.70000   0.
    43.56333  2945.36667   0.
    44.07667  2945.23333   0.
    45.10333  2944.90000   0.
    45.61667  2944.70000   0.
    46.64000  2944.36667   0.
    47.15000  2944.23333   0.
    48.17333  2943.93333   0.
    48.68667  2943.76667   0.
    49.71333  2943.53333   0.
    50.22667  2943.46667   0.
    51.25333  2943.26667   0.
    51.76667  2943.13333   0.
    52.79000  2942.83333   0.
    53.30000  2942.66667   0.
    54.32333  2942.36667   0.
    54.83667  2942.23333   0.
    55.86333  2941.93333   0.
    56.37667  2941.76667   0.
    57.40333  2941.40000   0.
    57.91667  2941.20000   0.
    58.94000  2940.86667   0.
    59.45000  2940.73333   0.
    60.47333  2940.43333   0.
    60.98667  2940.26667   0.
    62.01333  2939.90000   0.
    62.52667  2939.70000   0.
    63.55333  2939.36667   0.
    64.06667  2939.23333   0.
    65.34500  2939.15000   0.
    66.88000  2939.20000   0.
    68.42000  2939.15000   0.
    69.70333  2939.03333   0.
    70.21667  2938.96667   0.
    71.24000  2938.80000   0.
    71.75000  2938.70000   0.
    72.77333  2938.50000   0.
    73.28667  2938.40000   0.
    74.31333  2938.36667   0.
    74.82667  2938.43333   0.
    75.85333  2938.56667   0.
    76.36667  2938.63333   0.
    77.64500  2938.65000   0.
    78.92333  2938.66667   0.
    79.43667  2938.73333   0.
    80.72000  2938.85000   0.
    82.00333  2938.96667   0.
    82.51667  2939.03333   0.
    83.79500  2939.10000   0.
     0.08400  2959.57200   0.
     1.19600  2958.89800   0.
     2.30800  2958.22400   0.
     4.53000  2956.94200   0.
     5.64000  2956.33400   0.
     6.75000  2955.72600   0.
     7.86000  2955.11800   0.
    10.35750  2953.84750   0.
    11.74500  2953.18500   0.
    13.13250  2952.52250   0.
    15.90750  2951.24000   0.
    17.29500  2950.62000   0.
    18.68250  2950.00000   0.
    21.18200  2948.82200   0.
    22.29400  2948.26400   0.
    23.40600  2947.70600   0.
    24.51800  2947.14800   0.
    26.74000  2946.00600   0.
    27.85000  2945.42200   0.
    28.96000  2944.83800   0.
    30.07000  2944.25400   0.
    32.56750  2943.00000   0.
    33.95500  2942.33000   0.
    35.34250  2941.66000   0.
    38.11750  2940.39750   0.
    39.50500  2939.80500   0.
    40.89250  2939.21250   0.
    43.66750  2938.18250   0.
    45.05500  2937.74500   0.
    46.44250  2937.30750   0.
    49.22000  2936.51750   0.
    50.61000  2936.16500   0.
    52.00000  2935.81250   0.
    54.77750  2935.01750   0.
    56.16500  2934.57500   0.
    57.55250  2934.13250   0.
    60.32750  2933.25500   0.
    61.71500  2932.82000   0.
    63.10250  2932.38500   0.
    65.87750  2931.91500   0.
    67.26500  2931.88000   0.
    68.65250  2931.84500   0.
    71.43000  2931.69750   0.
    72.82000  2931.58500   0.
    74.21000  2931.47250   0.
    76.98750  2931.44500   0.
    78.37500  2931.53000   0.
    79.76250  2931.61500   0.
    82.53750  2931.75500   0.
    83.92500  2931.81000   0.
     6.60134  2937.05984   0.
    20.80435  2932.52560   0.
     3.78758  2946.36592   0.
    15.48523  2940.98228   0.
    29.30091  2934.50364   0.
    23.90594  2939.46561   0.
    40.87322  2931.62711   0.
     1.03219  2951.87344   0.
    10.83406  2946.32292   0.
    20.42668  2943.42459   0.
    48.80952  2930.83467   0.
    35.50309  2935.49258   0.
     7.54365  2949.73854   0.
    28.57967  2939.84283   0.
    15.90963  2945.83181   0.
    44.30452  2933.27820   0.
    -0.12722  2955.42655   0.
    24.47411  2943.04615   0.
     4.45051  2952.86019   0.
    40.01017  2935.22543   0.
    52.75593  2931.58993   0.
    13.75183  2934.27842   0.
    32.31862  2938.44653   0.
     0.40990  2931.04902   0.
    19.20708  2946.27332   0.
    57.19103  2930.55709   0.
    -0.97178  2947.27328   0.
    19.39705  2939.49643   0.
    11.08068  2950.12444   0.
    32.86215  2930.47012   0.
     7.41320  2941.82707   0.
    13.76382  2948.77946   0.
    27.17579  2942.79365   0.
     7.27112  2952.68663   0.
     2.71547  2954.94653   0.
    22.91159  2945.17994   0.
     2.00816  2941.86911   0.
    24.73355  2934.79062   0.
    47.86753  2934.00196   0.
    50.62083  2933.29089   0.
    60.15732  2930.28185   0.
    37.65425  2937.53830   0.
    44.64836  2929.77041   0.
    10.93416  2939.02064   0.
     4.26476  2949.76242   0.
    36.78915  2931.78219   0.
     7.36345  2946.13476   0.
    30.92470  2941.06806   0.
     6.19921  2931.10091   0.
    35.16618  2938.51604   0.
    16.36294  2929.87801   0.
    13.43632  2943.77014   0.
    42.64967  2935.50406   0.
    26.89596  2931.23775   0.
     1.59760  2936.73753   0.
    17.19200  2948.13905   0.
    -0.61497  2957.60981   0.
    26.49360  2937.36117   0.
     9.56799  2951.50953   0.
    17.55858  2943.77119   0.
    55.26825  2932.33039   0.
    22.03247  2936.46128   0.
    16.10828  2937.24515   0.
    22.48452  2941.40733   0.
    20.86327  2946.43955   0.
    29.71126  2937.35408   0.
    32.14062  2935.59882   0.
    45.26358  2935.44707   0.
    29.19256  2942.39482   0.
    25.22337  2944.48902   0.
    25.77440  2940.40763   0.
     5.12787  2951.33100   0.
     9.72036  2943.07255   0.
     0.63027  2944.64860   0.
     5.15669  2954.13690   0.
    33.80274  2940.56791   0.
     1.57076  2956.41210   0.
     9.31000  2947.97928   0.
     9.87726  2933.53233   0.
    53.60824  2932.85261   0.
    40.63972  2936.89193   0.
    13.47285  2946.23828   0.
    37.68088  2934.75035   0.
    46.32767  2931.88185   0.
    18.64740  2941.16071   0.
    13.09413  2950.32980   0.
    18.01744  2935.92389   0.
     0.55332  2948.73049   0.
     5.35766  2947.55011   0.
    42.44669  2933.52960   0.
    57.75733  2932.24094   0.
    23.68300  2931.83870   0.
    19.94397  2947.74183   0.
    61.81887  2931.15328   0.
[...]
POINT_DATA      1414
CELL_DATA      2568
SCALARS Resistivity(ohm.m) double 1
LOOKUP_TABLE default
          1163.26603          1717.49855          2325.59861          1114.80520           505.66036          2239.18221          1332.85930          1560.54446          1637.31978          2079.81864           806.56840          2071.15463           604.95159          2193.65311          2147.60111          1969.67928          1563.84587           476.57576           442.75237          2407.09469          1222.63000          1948.39415          1287.02456           602.04850          1804.57810           503.55114           264.79605          2188.04312          2087.14156          2308.54351           463.96128           518.82062          1642.61993           437.27799           367.20015          1785.75983           739.13560           952.86995          1244.01638          1641.52728          1774.53171           714.24085           422.51028          2175.40586           318.95272           455.85081          2813.09527           856.71336           631.02025           925.13066          2554.54026          1793.29280          1046.86100          1565.08124          2355.01034           904.76843           348.86472          2261.12519           418.61877          1117.80992           523.17029          2032.84576           468.22096          1906.53284           267.61933          1562.33558          2070.67433          2009.59830           285.25248           677.64820           498.30056           791.19461          1953.68320           382.39396           324.13948          2759.42076          1441.60102           472.56424           337.35772          2655.86774          2556.72899          1493.37445           397.87894           462.84838          1959.23064           748.26203           324.39312          1997.39257           868.06526          1881.59803          1060.07481           339.14814          2262.65633           367.42805          1915.33880          1913.00738           537.67735          1248.01329          2065.18530          1003.83596          1549.20043           524.45496           613.71998           741.58902          1014.78350          1663.95225           491.76212           971.76134          2254.30205          1329.29514           397.16553          1136.39701          2362.57842          1799.39656          1934.15425          1337.72062          1050.16460          1505.70998           410.62575           310.91755          2334.77918          1406.07504          2845.39301           730.11033           519.77964          2007.00044          2259.87096          3078.74113          1844.97737          1480.72268          2030.36851          1100.22152          1252.16283          2162.57741           844.57031          2658.29059           391.67944          1635.47806          1001.54232          1385.36444          1586.84802           497.01586           589.66933          1382.31474          1627.94039           548.20117           428.65492          1476.92761          1876.28707           512.72472          2325.14225          1838.39330           948.95467           708.32169          2256.56280           294.58754          1663.78715           439.94037          2090.87499          1297.93634          1200.00853           489.05348          2189.87373           454.41030          2215.82101           537.41640          1508.81009          1913.18124          1850.68551          1686.02296           738.19247           781.21188           673.27129           272.58855           380.44565           950.51352           771.82304          3369.70637          2485.07695          1148.21229          2237.11101          1453.59707          1951.28103           720.97025           530.81785           952.06051           832.11087           615.65394           889.08903          2334.37103          1232.61179          2288.61890           547.38684          2514.30325           269.85601           465.71139          2470.90672          2055.81499          1245.77346           383.85463           294.10739           832.47754          1801.67381          1444.23764          1881.51493          1041.12100          3684.90777          2350.70184           362.29682          2276.39755          1325.87172           583.09009           387.63605           332.28336           549.37368          1200.42039          2198.11054           501.74766          1257.58159           487.66329           880.62417          1347.55861          1119.57351           344.82287           633.93238           595.53383           384.60169           500.96819          1322.81470           318.68962          1070.08437          2140.98582          1418.04529          2770.81871          2343.41719          1698.12075          2370.41716          1463.79471          1415.46568          1376.02652          2438.87006           658.64241           938.76724           383.54895          2349.73575           273.61595          1834.68240           464.55987           460.09881          2141.31975           265.90907          2102.74110          1744.98913           637.40091          1948.07367           983.28715           646.72187           678.34283           695.36988          2710.35623           568.96442          2215.54352           490.95415           401.38884           421.94007          1659.49587           351.87576          2286.61572           871.63363          2364.94611          1016.94922          2159.64899          2268.71047          2181.96722           481.15621          1606.87248          2272.51732           483.95777           708.83444           665.12037           491.67983          1396.80312           282.33456           939.58939           937.23756          2322.70041           431.08385          2407.00811           621.99125           463.83170           946.13737           312.38330          2220.01717           605.99846          1888.46868          2278.91185          1447.62622           503.71583           412.36985           600.19454          1003.96608           414.78483          2466.88332          2372.53054           436.36198          1761.96886          1325.65070          1518.09422          1863.71070           388.38473           638.25201           582.06685           285.21181          2295.12232           799.22015           339.32818           477.55534          1174.91265          2590.11557           486.29097          3096.12156           368.72885           942.29718           444.68580           498.69070          1217.06681           438.59400          1406.62340          1038.92177          2682.30728          1745.50814          2145.18480           465.99182          1594.91643           329.70466           366.38592           545.54493           587.97355          2985.72596           528.73154          2071.33008           426.18401          2082.41924           479.14493           546.27238          1745.05757          1216.60332          1081.13469           438.39848          2126.12298           462.14481          2295.53392           738.53931           384.00247           425.45151          2005.17417           468.28138          1593.33371           303.03560           357.45082           840.29260          1509.82315           921.34679           479.98837          1360.74670           457.70936           366.77396          2339.86280          1781.64470          2475.99129           480.59347          1320.55311          1411.54354          1019.16009           290.02427          2485.87186           375.43895           500.41461           454.70669          1944.79126          1368.98789           447.94735          1731.06638          2310.10602           274.66032          1357.15881           559.47479          1384.31764           406.26007          1528.65481           650.18415           316.57965          1431.61404          1417.18554           431.88307           829.42931           522.23424          1385.26574          1685.43283          1045.60128           554.31543           573.13927          1358.46802          1460.07825          1327.94826           844.45787           506.47522           917.57725          2268.26049          1647.83374          1516.75021          2084.72410          1037.48509           627.33458          1131.81618          2484.24949           687.88413           871.93517           706.52753          1750.85192          1006.14932           350.79812          2129.93387          1443.53000          1301.23486           277.15872          1704.04648           562.15131          1403.38027           499.54773          1347.24493           489.23377           435.47549          2061.47806          1057.56425          1467.11145          1509.05506           651.79280          1818.87207          1331.98491          3384.07543           579.48356          1193.34274          2205.92907          1157.34014          1110.70252          1312.49183          1225.38719          4009.76872           819.03384          3138.11790          1568.15319          1539.36076          1234.48156          1751.87397           823.31373          2031.52683           888.98237          1387.90143           463.95917          1843.18178          1343.01377           847.28866          1360.31829          2162.08782           808.69523           884.69506          1215.27026          1806.26425          1663.88020           819.46172          1769.32022           886.10678           284.98214          1876.11469          3702.20535          1085.39224           399.45122          1541.85224           728.00013          1058.75511          2046.94637           467.26445           540.59605          2121.83605          2654.26779          1291.58409           367.89261           695.01256           779.26691          1297.98717          1174.38101          1064.45008          1511.81880           764.09414          1469.97519           736.20493          1079.47333          2376.08098          1750.70025           675.91208           333.44953           586.56927          1299.63981           754.43316          1246.91421          3461.11716          1279.62035           334.57939           443.91414          1301.82115          1226.52076           892.16119           371.94719          2981.43673          1417.66317           341.75583          3117.65935          2200.16355           458.92182          1413.04030          1267.02778          1083.25131          1224.90365          1090.46052           498.79100          1635.11457          1444.13746          1459.60317          1329.82167           660.85057          1783.27017           482.08694          1247.55312           529.83229           465.54805           689.73344          1711.40909          1128.38257           900.82429           479.26122           364.08336          1687.02225          1172.06185          4035.39854          4202.76888          3375.79897          1969.34441          1973.50419          2109.57512          3750.35370          5115.07363           619.66014          4678.71372           392.16373          1125.49264          1452.25799           596.48913          3834.07865          4941.54860          1299.84127           454.32774          2033.12338          2762.66191           816.03706           806.54331          1477.47847          4475.76963          1341.22991          2471.75095           956.93146           549.56876          1507.69761          1671.20548           436.79398          3330.65775           512.77863          1432.19622          5415.67926          4112.58907          1815.00451          4834.45802           306.68330           823.12806           475.00599          1929.81107          2724.03511          1748.68777          3129.83161          1836.02230          2719.34649           790.66648          1561.69354          1325.61990          1878.85819          8501.45125          3680.81750           951.45501          4874.60649          4074.26030           827.05176           676.62271          4861.48795          2873.25936          4564.51720          4807.42288          1530.77723           890.15475           650.72254           501.08826           831.79603          4602.36618          1605.35095          1047.19548          1730.22923           343.77764          1089.34853          1849.21610          3594.93790          1024.26220           877.46950           707.67008           763.35384          1600.00624          1512.14358           835.59522          3188.32322          2892.69620          3193.37273          3271.49622          6097.10674          4117.03753          2501.14598           564.68719          4380.82600          1235.56110          1613.58811           639.50328          1468.41629           876.23578           376.69450          5988.39659          5171.15947          1548.88239          1617.93951          2822.98910          2218.07821          3285.00104          3184.25455           941.42408          1262.89423           585.89200           791.20329           417.47829           516.65508           788.18390           609.63802          2043.70584          4297.16204          3554.57766          1501.10213          2183.11371          1430.38312          1653.94892          8140.93552          4986.95955          1891.64318           436.79706           579.56379          5098.49818           663.85487          4092.47555          4585.65092          1067.57149          2399.24296           690.60521           929.51770          1081.78520          2338.44875          2385.03484          2654.39979           623.74620           497.87264          1172.31669           374.78566           619.74899           434.43330          3532.06776          5088.36743           450.58550          3030.66638           814.82532          2727.92711          1261.57206           653.14905           616.46231           691.34018           656.31499          2048.59766           727.82076          1432.66146           670.53512          2667.78601          1970.91992          3848.22988          2871.50819           578.87702           568.18073           348.76402          3037.80074           739.78547           733.09447          1357.64969          2689.08190           712.20086           870.92447           538.34729          1332.58433           962.72284          1647.93854          1366.01721           621.90670           787.36978           719.47496          2732.00932          1990.47620          1154.09315          7717.47298          1074.57880           884.34926           932.21150          1510.85701          2561.82881          1624.33956          1560.31306          1526.02625          2784.66741           729.83694          6854.02404          1379.76748          2760.88823           815.55226          1178.16769          4031.65584          2730.45587           776.37628          1138.01234          3317.58290           500.29385           580.69383          1274.14127          2945.44599          5460.27159          1537.52534          7130.69576          1338.32475          1706.74123          1584.02598          1226.55581           449.39559           836.77144          2793.26860           698.48021          4082.19734           609.39309          3216.22279           801.45527           621.01539          1357.67076          2068.56720          2919.83708          4866.00364          2825.79256          1529.48820          1718.38062          1349.07460          5030.96900          7345.16927          2115.09489           996.71627          2836.23459           631.20103          1149.81033           885.71163          2572.17416          1168.00219           988.03947           585.45829           621.10124          4023.62125          1050.88099           797.62858          6168.94557          3953.85431          2584.52608          1392.27545          7442.41102           836.20721          2388.89485          2843.63018          2222.45417          1154.55208          3046.26853          5123.78465          1841.28605           410.22033           730.95955           884.36031          1839.53542          1710.33681           688.25228           710.45480          6269.35261           777.04134          1160.41643          1979.90025          4078.11484          4708.61879           446.69990          1369.03355           869.68644          1081.74169          1941.26749           758.19013           847.97057          1564.64671           813.42329           570.76768           413.48601           787.19178          2938.12417           487.20576          2887.64286          1760.90530          2000.52152          1376.97715          1689.12781          1674.71554           423.96343          3755.09598          1540.23669          2045.84712          1953.91486          2158.03018          4827.54061           904.70572          5516.46548           641.05707           721.83378          1626.85011          1187.09544          7562.61800          2637.80860           888.79324          1752.46956          4040.87222          3323.77387           612.26949          4963.60610          1496.95410          2774.85585          1120.52347          3485.04842          3886.80228           489.46507          3432.83655          3611.44479          2649.60747          5225.82829           895.20461           758.97858          1180.10124          2369.36614           458.96921          8788.89075          3777.01756           630.66243          1596.26286          1665.97546          2068.32517           808.57405          1157.47475         12500.73702           647.96386          2328.07362          1356.08410           505.68369           795.47388          2717.77828          5327.71621          6196.16716          1504.19997          2530.21317          2632.82710          4448.49994           736.22218          1417.72696          2083.60099          1847.62477          5285.74523           604.81801          1173.77336          2812.63449           842.27772          3854.63845          2194.68567          6975.21683          2308.78884          1127.21459          1158.20360           628.34379          4904.18769          7427.40441          1941.53081           324.54188           407.66185           785.26908           792.20925          6318.62378          1418.76020          2203.65473          3130.61645          2396.81776          5471.85945          5559.13631           365.59694           690.68832           791.62251          1209.47454           647.27979          4265.06997          4152.25060          1406.06199           662.37135          1049.82898          2161.92802          3813.32611          2267.53909          2135.11321           905.56489          4040.32004          7041.32046           484.37687           694.37385          1873.57212          7876.45290          1865.33346          2999.79202          4763.78662           706.38520          1835.92986          4481.85265           562.01196          1520.47545           948.43685          5823.84091           918.65708          1876.92610          2929.08493          5303.59987          4972.35067          6083.30870          4780.11736          4397.22992          1993.38457           849.89319          3610.65709          9499.69970           593.58734          2668.96284          2550.17394           293.06871          2467.91999          3317.95758          2511.60193           443.93214          4381.02167           791.98419          3358.67630          4179.45609          1919.86329           794.52134          3097.79694          3366.24689          5160.90785          6079.37525          5486.76126           648.62653           648.45176          1259.89921          4967.43043          1029.17126          2781.69821           807.48525           613.851