# vtk DataFile Version 3.0
Output from R2
ASCII
DATASET UNSTRUCTURED_GRID
POINTS       1414 double
     0.00000  2968.10000   0.
     1.54000  2966.60000   0.
     3.08000  2964.90000   0.
     4.61000  2964.10000   0.
     6.15000  2963.30000   0.
     7.69000  2962.60000   0.
     9.23000  2961.50000   0.
    10.76000  2960.70000   0.
    12.30000  2960.00000   0.
    13.84000  2959.30000   0.
    15.38000  2958.70000   0.
    16.91000  2958.10000   0.
    18.45000  2957.30000   0.
    19.99000  2956.60000   0.
    21.52000  2955.80000   0.
    23.06000  2955.00000   0.
    24.60000  2954.30000   0.
    26.14000  2953.50000   0.
    27.68000  2952.80000   0.
    29.21000  2951.90000   0.
    30.75000  2951.10000   0.
    32.29000  2950.20000   0.
    33.83000  2949.50000   0.
    35.36000  2948.70000   0.
    36.90000  2948.10000   0.
    38.44000  2947.30000   0.
    39.98000  2946.70000   0.
    41.51000  2946.10000   0.
    43.05000  2945.50000   0.
    44.59000  2945.10000   0.
    46.13000  2944.50000   0.
    47.66000  2944.10000   0.
    49.20000  2943.60000   0.
    50.74000  2943.40000   0.
    52.28000  2943.00000   0.
    53.81000  2942.50000   0.
    55.35000  2942.10000   0.
    56.89000  2941.60000   0.
    58.43000  2941.00000   0.
    59.96000  2940.60000   0.
    61.50000  2940.10000   0.
    63.04000  2939.50000   0.
    64.58000  2939.10000   0.
    66.11000  2939.20000   0.
    67.65000  2939.20000   0.
    69.19000  2939.10000   0.
    70.73000  2938.90000   0.
    72.26000  2938.60000   0.
    73.80000  2938.30000   0.
    75.34000  2938.50000   0.
    76.88000  2938.70000   0.
    78.41000  2938.60000   0.
    79.95000  2938.80000   0.
    81.49000  2938.90000   0.
    83.03000  2939.10000   0.
    84.56000  2939.10000   0.
     3.42000  2957.55000   0.
     8.97000  2954.51000   0.
    14.52000  2951.86000   0.
    20.07000  2949.38000   0.
    25.63000  2946.59000   0.
    31.18000  2943.67000   0.
    36.73000  2940.99000   0.
    42.28000  2938.62000   0.
    47.83000  2936.87000   0.
    53.39000  2935.46000   0.
    58.94000  2933.69000   0.
    64.49000  2931.95000   0.
    70.04000  2931.81000   0.
    75.60000  2931.36000   0.
    81.15000  2931.70000   0.
     0.51333  2967.60000   0.
     1.02667  2967.10000   0.
     2.05333  2966.03333   0.
     2.56667  2965.46667   0.
     3.59000  2964.63333   0.
     4.10000  2964.36667   0.
     5.12333  2963.83333   0.
     5.63667  2963.56667   0.
     6.66333  2963.06667   0.
     7.17667  2962.83333   0.
     8.20333  2962.23333   0.
     8.71667  2961.86667   0.
     9.74000  2961.23333   0.
    10.25000  2960.96667   0.
    11.27333  2960.46667   0.
    11.78667  2960.23333   0.
    12.81333  2959.76667   0.
    13.32667  2959.53333   0.
    14.35333  2959.10000   0.
    14.86667  2958.90000   0.
    15.89000  2958.50000   0.
    16.40000  2958.30000   0.
    17.42333  2957.83333   0.
    17.93667  2957.56667   0.
    18.96333  2957.06667   0.
    19.47667  2956.83333   0.
    20.50000  2956.33333   0.
    21.01000  2956.06667   0.
    22.03333  2955.53333   0.
    22.54667  2955.26667   0.
    23.57333  2954.76667   0.
    24.08667  2954.53333   0.
    25.11333  2954.03333   0.
    25.62667  2953.76667   0.
    26.65333  2953.26667   0.
    27.16667  2953.03333   0.
    28.19000  2952.50000   0.
    28.70000  2952.20000   0.
    29.72333  2951.63333   0.
    30.23667  2951.36667   0.
    31.26333  2950.80000   0.
    31.77667  2950.50000   0.
    32.80333  2949.96667   0.
    33.31667  2949.73333   0.
    34.34000  2949.23333   0.
    34.85000  2948.96667   0.
    35.87333  2948.50000   0.
    36.38667  2948.30000   0.
    37.41333  2947.83333   0.
    37.92667  2947.56667   0.
    38.95333  2947.10000   0.
    39.46667  2946.90000   0.
    40.49000  2946.50000   0.
    41.00000  2946.30000   0.
    42.02333  2945.90000   0.
    42.53667  2945.70000   0.
    43.56333  2945.36667   0.
    44.07667  2945.23333   0.
    45.10333  2944.90000   0.
    45.61667  2944.70000   0.
    46.64000  2944.36667   0.
    47.15000  2944.23333   0.
    48.17333  2943.93333   0.
    48.68667  2943.76667   0.
    49.71333  2943.53333   0.
    50.22667  2943.46667   0.
    51.25333  2943.26667   0.
    51.76667  2943.13333   0.
    52.79000  2942.83333   0.
    53.30000  2942.66667   0.
    54.32333  2942.36667   0.
    54.83667  2942.23333   0.
    55.86333  2941.93333   0.
    56.37667  2941.76667   0.
    57.40333  2941.40000   0.
    57.91667  2941.20000   0.
    58.94000  2940.86667   0.
    59.45000  2940.73333   0.
    60.47333  2940.43333   0.
    60.98667  2940.26667   0.
    62.01333  2939.90000   0.
    62.52667  2939.70000   0.
    63.55333  2939.36667   0.
    64.06667  2939.23333   0.
    65.34500  2939.15000   0.
    66.88000  2939.20000   0.
    68.42000  2939.15000   0.
    69.70333  2939.03333   0.
    70.21667  2938.96667   0.
    71.24000  2938.80000   0.
    71.75000  2938.70000   0.
    72.77333  2938.50000   0.
    73.28667  2938.40000   0.
    74.31333  2938.36667   0.
    74.82667  2938.43333   0.
    75.85333  2938.56667   0.
    76.36667  2938.63333   0.
    77.64500  2938.65000   0.
    78.92333  2938.66667   0.
    79.43667  2938.73333   0.
    80.72000  2938.85000   0.
    82.00333  2938.96667   0.
    82.51667  2939.03333   0.
    83.79500  2939.10000   0.
     0.08400  2959.57200   0.
     1.19600  2958.89800   0.
     2.30800  2958.22400   0.
     4.53000  2956.94200   0.
     5.64000  2956.33400   0.
     6.75000  2955.72600   0.
     7.86000  2955.11800   0.
    10.35750  2953.84750   0.
    11.74500  2953.18500   0.
    13.13250  2952.52250   0.
    15.90750  2951.24000   0.
    17.29500  2950.62000   0.
    18.68250  2950.00000   0.
    21.18200  2948.82200   0.
    22.29400  2948.26400   0.
    23.40600  2947.70600   0.
    24.51800  2947.14800   0.
    26.74000  2946.00600   0.
    27.85000  2945.42200   0.
    28.96000  2944.83800   0.
    30.07000  2944.25400   0.
    32.56750  2943.00000   0.
    33.95500  2942.33000   0.
    35.34250  2941.66000   0.
    38.11750  2940.39750   0.
    39.50500  2939.80500   0.
    40.89250  2939.21250   0.
    43.66750  2938.18250   0.
    45.05500  2937.74500   0.
    46.44250  2937.30750   0.
    49.22000  2936.51750   0.
    50.61000  2936.16500   0.
    52.00000  2935.81250   0.
    54.77750  2935.01750   0.
    56.16500  2934.57500   0.
    57.55250  2934.13250   0.
    60.32750  2933.25500   0.
    61.71500  2932.82000   0.
    63.10250  2932.38500   0.
    65.87750  2931.91500   0.
    67.26500  2931.88000   0.
    68.65250  2931.84500   0.
    71.43000  2931.69750   0.
    72.82000  2931.58500   0.
    74.21000  2931.47250   0.
    76.98750  2931.44500   0.
    78.37500  2931.53000   0.
    79.76250  2931.61500   0.
    82.53750  2931.75500   0.
    83.92500  2931.81000   0.
     6.60134  2937.05984   0.
    20.80435  2932.52560   0.
     3.78758  2946.36592   0.
    15.48523  2940.98228   0.
    29.30091  2934.50364   0.
    23.90594  2939.46561   0.
    40.87322  2931.62711   0.
     1.03219  2951.87344   0.
    10.83406  2946.32292   0.
    20.42668  2943.42459   0.
    48.80952  2930.83467   0.
    35.50309  2935.49258   0.
     7.54365  2949.73854   0.
    28.57967  2939.84283   0.
    15.90963  2945.83181   0.
    44.30452  2933.27820   0.
    -0.12722  2955.42655   0.
    24.47411  2943.04615   0.
     4.45051  2952.86019   0.
    40.01017  2935.22543   0.
    52.75593  2931.58993   0.
    13.75183  2934.27842   0.
    32.31862  2938.44653   0.
     0.40990  2931.04902   0.
    19.20708  2946.27332   0.
    57.19103  2930.55709   0.
    -0.97178  2947.27328   0.
    19.39705  2939.49643   0.
    11.08068  2950.12444   0.
    32.86215  2930.47012   0.
     7.41320  2941.82707   0.
    13.76382  2948.77946   0.
    27.17579  2942.79365   0.
     7.27112  2952.68663   0.
     2.71547  2954.94653   0.
    22.91159  2945.17994   0.
     2.00816  2941.86911   0.
    24.73355  2934.79062   0.
    47.86753  2934.00196   0.
    50.62083  2933.29089   0.
    60.15732  2930.28185   0.
    37.65425  2937.53830   0.
    44.64836  2929.77041   0.
    10.93416  2939.02064   0.
     4.26476  2949.76242   0.
    36.78915  2931.78219   0.
     7.36345  2946.13476   0.
    30.92470  2941.06806   0.
     6.19921  2931.10091   0.
    35.16618  2938.51604   0.
    16.36294  2929.87801   0.
    13.43632  2943.77014   0.
    42.64967  2935.50406   0.
    26.89596  2931.23775   0.
     1.59760  2936.73753   0.
    17.19200  2948.13905   0.
    -0.61497  2957.60981   0.
    26.49360  2937.36117   0.
     9.56799  2951.50953   0.
    17.55858  2943.77119   0.
    55.26825  2932.33039   0.
    22.03247  2936.46128   0.
    16.10828  2937.24515   0.
    22.48452  2941.40733   0.
    20.86327  2946.43955   0.
    29.71126  2937.35408   0.
    32.14062  2935.59882   0.
    45.26358  2935.44707   0.
    29.19256  2942.39482   0.
    25.22337  2944.48902   0.
    25.77440  2940.40763   0.
     5.12787  2951.33100   0.
     9.72036  2943.07255   0.
     0.63027  2944.64860   0.
     5.15669  2954.13690   0.
    33.80274  2940.56791   0.
     1.57076  2956.41210   0.
     9.31000  2947.97928   0.
     9.87726  2933.53233   0.
    53.60824  2932.85261   0.
    40.63972  2936.89193   0.
    13.47285  2946.23828   0.
    37.68088  2934.75035   0.
    46.32767  2931.88185   0.
    18.64740  2941.16071   0.
    13.09413  2950.32980   0.
    18.01744  2935.92389   0.
     0.55332  2948.73049   0.
     5.35766  2947.55011   0.
    42.44669  2933.52960   0.
    57.75733  2932.24094   0.
    23.68300  2931.83870   0.
    19.94397  2947.74183   0.
    61.81887  2931.15328   0.
[...]
POINT_DATA      1414
CELL_DATA      2568
SCALARS Resistivity(ohm.m) double 1
LOOKUP_TABLE default
          1208.85843          1680.06107          2240.64512          1164.52251           515.30586          2162.06777          1294.47452          1466.03002          1556.79358          2023.62062           787.95579          1998.37285           573.50810          2206.18875          2156.09368          1846.98046          1509.68955           440.32197           466.37302          2333.38398          1231.74015          1890.07061          1280.52695           576.16083          1753.44221           493.90332           256.43546          2124.94182          2079.30276          2222.56248           485.89272           496.25631          1602.71869           387.94427           370.95978          1583.03379           717.26400          1004.71829          1239.26617          1475.22320          1704.22527           676.44271           460.10621          2196.68249           330.66508           404.75979          2975.48168           852.07933           591.74105           967.29680          2615.96479          1737.73107          1072.74292          1500.21622          2225.94891           960.28862           361.53294          2179.99880           427.05608          1154.08757           528.31213          2008.72690           439.02008          1830.67827           260.51541          1480.22338          2025.46939          1969.09006           286.11135           743.94714           479.45145           786.49373          1919.32336           402.38279           320.70945          2903.66271          1457.15147           439.32565           339.05425          2786.05331          2645.43785          1435.23864           412.36238           419.69390          1922.43965           818.84990           334.21363          1966.86719           889.79419          1853.08672          1115.74580           357.20256          2177.34335           366.89532          1681.36483          1870.68741           558.56915          1290.00725          2053.46684          1060.67448          1538.88098           531.13864           632.40462           712.02570          1043.64916          1590.21125           501.98930           989.91841          2071.73469          1367.96434           388.84892          1154.53488          2431.01612          1780.54947          1893.69463          1276.77769          1076.62639          1459.89201           445.53469           316.20837          2249.33551          1414.75228          3007.26664           737.14101           523.32007          1964.83012          2301.20490          3257.45233          1812.71029          1391.98430          1986.48551          1147.06536          1226.70922          2156.45329           848.22070          2784.04633           386.14076          1567.82662          1063.44449          1317.94137          1555.16580           506.63132           614.44007          1330.80089          1577.74386           558.02414           444.48996          1464.83958          1830.58967           509.35868          2242.38802          1785.80842           972.88420           668.25599          2220.04435           290.46950          1594.97212           390.13408          2088.69959          1264.05475          1237.87870           504.46606          2201.77289           456.17036          2145.54831           541.22101          1396.69489          1735.12606          1790.76572          1631.47580           702.72219           779.96914           698.89367           269.70755           399.51376           958.40845           837.70434          3566.96293          2577.01208          1196.19451          2180.50069          1439.88832          1910.80575           743.33540           530.90982          1016.93812           900.67934           653.83547           885.64087          2391.88076          1218.93291          2325.65607           599.21994          2611.89689           265.78529           506.20609          2547.51270          2010.65855          1278.90436           412.02117           289.75813           829.98814          1781.91612          1396.72358          1740.48930          1100.19285          3897.17213          2245.34367           386.61950          2189.70891          1307.78490           590.45252           412.80512           337.70059           536.38238          1235.92232          2224.62855           471.21080          1296.49438           514.50330           891.83119          1385.60021          1170.83315           347.46370           620.74593           654.22857           391.70402           548.37764          1260.99745           316.54410          1086.41908          1957.90012          1415.31454          2909.55336          2318.57623          1653.89508          2371.85589          1468.64718          1447.45030          1370.91700          2523.68014           628.11785          1006.96003           408.89102          2390.98295           267.86205          1804.00544           473.94449           442.32143          2081.51189           258.32398          1961.55779          1718.86397           691.09483          1906.23298          1019.36540           602.57842           730.12474           687.84917          2834.09143           557.26815          2144.48711           483.60044           434.40970           431.77921          1647.80413           361.08774          2191.79398           942.28720          2292.74102          1030.18416          2051.25970          2304.78467          2126.91961           440.29956          1586.43719          2170.29142           426.72852           671.82961           619.90820           431.13792          1340.22854           278.43890           977.60575           941.53986          2224.18909           466.45525          2369.86477           598.63536           477.85907           958.54247           308.92785          2212.38529           667.40415          1845.45232          2203.19419          1472.83920           523.33233           444.51840           647.42977          1042.60549           432.19046          2484.02802          2445.01089           392.31125          1698.41633          1294.81440          1483.94897          1810.17973           393.01958           699.37944           559.33969           287.12795          2200.71993           777.05480           338.28535           485.08327          1187.32805          2690.65673           456.33142          3275.13063           377.74577           956.59329           461.00485           535.16329          1223.27848           446.03673          1341.92692          1096.79278          2817.50004          1716.29166          2088.62343           510.32061          1599.48332           335.10012           384.39502           590.95961           582.30856          3155.41043           521.22846          2038.85608           418.92578          2034.11588           451.09946           564.67838          1684.14294          1263.44292          1126.21736           439.60679          2080.60416           452.90925          2347.47614           795.91607           378.09875           456.23998          1966.17134           483.27794          1601.82812           310.25692           381.17630           830.71758          1440.36388           926.94746           524.21054          1321.85223           495.63947           364.01718          2238.86626          1758.59287          2559.07963           423.07286          1275.70927          1385.00944          1038.05556           286.06622          2582.81376           388.85214           452.68486           415.82280          1903.57976          1352.11800           431.39447          1661.08990          2321.40387           267.23093          1309.99641           552.80366          1404.66778           430.94297          1541.03616           715.29154           326.33493          1374.60293          1347.71858           438.87053           813.06400           572.79294          1354.02782          1623.53515          1065.40090           547.06512           631.20689          1370.07911          1381.24929          1349.53771           893.75063           503.08498           981.05181          2184.78338          1643.96069          1533.18758          2063.13955          1053.94833           602.95873          1156.34887          2474.95273           644.04295           875.55885           680.38197          1737.84435          1019.71138           370.14208          2094.58540          1469.56314          1338.18231           274.64341          1573.00920           548.94008          1365.36934           482.53615          1375.79783           469.56642           432.27316          1836.29540          1101.96110          1442.75704          1521.01694           613.25146          1761.57990          1303.99924          3573.44300           558.73278          1219.54605          2000.43000          1184.39511          1155.21010          1260.24999          1241.36434          4251.32271           874.69122          3319.55616          1568.34191          1493.56707          1232.27615          1637.06670           847.02054          2014.56330           955.20738          1418.03318           422.52761          1801.99544          1346.55357           911.29439          1358.44258          2102.29720           844.53591           879.17503          1232.68249          1631.24132          1662.30990           833.58882          1726.29865           912.94310           277.89178          1838.92493          3926.57594          1105.49844           412.29001          1542.74373           715.32689          1104.54797          1844.97146           503.32695           539.75187          2067.93198          2779.40350          1304.88506           361.80758           651.83936           789.11851          1301.97277          1196.91912          1116.19976          1435.77837           815.43423          1394.98263           776.64769          1130.32246          2432.68233          1700.53575           634.40169           329.48502           565.80544          1340.86853           787.07141          1291.77596          3670.23537          1303.07849           350.95974           474.37893          1324.06999          1271.66925           909.63106           398.73797          3147.58367          1342.22345           361.23734          3295.32220          2173.17743           405.70121          1437.44346          1281.68851          1138.73713          1253.08712          1145.44676           547.82258          1618.23138          1375.47335          1394.11189          1319.61865           703.43059          1734.76250           436.12723          1249.13255           582.52728           416.38825           726.06751          1697.96518          1180.86286           969.97051           428.02550           387.85490          1666.52983          1220.45707          3851.50308          3799.92153          3079.73599          2033.49797          1974.27985          2273.93586          3450.65869          4843.08146           618.79933          4502.67989           419.81088          1094.94237          1459.28401           634.92108          3663.84266          5056.28913          1271.35490           461.38720          2284.93977          2905.92741           788.05172           866.27248          1409.79728          4454.87700          1465.97450          2160.50028           965.32389           596.17356          1317.24651          1554.46485           488.01888          3489.51349           483.80805          1477.86178          5017.89803          3951.86950          1865.78540          4411.73336           297.06523           806.26316           462.48195          2064.72277          2844.88619          1890.77954          3392.05285          1956.44108          2772.63918           764.51158          1669.56363          1338.57713          1755.17661          8294.87443          3311.43014           932.96601          4900.68853          4289.61121           840.81875           617.96117          5129.61323          2774.29911          4390.05730          4580.17347          1480.53196           891.84979           611.56739           555.56045           829.28421          4335.23086          1781.88980          1026.54378          1529.36718           340.49587          1101.43982          1828.61821          3221.84228          1106.23785           862.76414           658.47638           793.47653          1615.31684          1518.88832           887.07847          2959.19725          2785.89298          3377.55165          3298.14024          5842.22022          4666.60581          2671.79543           563.08735          4289.09095          1319.17475          1672.70891           628.82146          1377.47931           881.02121           379.60293          6343.70032          5069.58625          1489.74217          1659.91173          2988.63714          2234.33228          2992.28306          2823.66051           933.51715          1301.34920           604.51471           774.03562           394.70747           492.53698           800.32682           616.71993          2225.14573          4701.38599          3705.22254          1520.07572          2313.08221          1416.79617          1755.75387          8351.62555          5253.13212          1940.33789           411.63371           555.80908          5268.50462           689.62016          3636.34540          4232.51037          1070.17939          2402.39458           703.10341           917.04362          1075.61605          2527.72468          2533.51887          2642.73767           622.95520           502.01525          1197.66803           363.48084           593.19719           462.33403          3321.83412          5430.95220           490.58922          2924.08944           873.66573          2715.05212          1224.09636           635.56632           659.22902           692.64477           673.95631          2069.68466           783.24916          1541.06935           717.20879          2427.46177          1747.27338          4130.81929          2707.78934           651.58125           572.76603           337.60494          3074.77201           816.28414           753.31579          1297.49525          2568.24151           687.39761           835.38770           518.50232          1275.56474          1047.69326          1663.61975          1418.29231           634.65356           771.67917           684.46706          2805.34101          2116.75007          1332.43996          7760.14237          1060.60333           985.04366           875.99795          1612.41799          2691.68671          1461.31255          1507.46950          1664.97651          2665.11582           695.19925          7405.72749          1569.75075          2885.67118           898.25224          1212.50028          4211.03251          2785.39832           797.37789          1106.47644          3034.26832           511.74896           542.30340          1242.02539          2696.68766          6195.24365          1452.16341          7357.93542          1382.28145          1801.01285          1479.03247          1199.55244           444.34553           757.01801          2936.08337           653.99352          4269.42951           610.83366          3379.95937           781.71301           735.41690          1550.01358          1933.63389          3059.98288          4821.74014          2756.10406          1446.87169          1856.21421          1256.82964          5563.62893          7691.89047          1925.51979          1074.99827          2763.11762           650.71631          1162.69497           848.75183          2812.97150          1175.35356          1076.63108           538.97959           624.47687          3617.50694          1106.03266           773.88010          5834.30510          4446.97664          2201.11821          1409.37616          8077.95943           794.38335          2474.76758          2998.69619          2199.96834          1235.76467          2911.77772          5470.59849          1817.20040           438.61648           698.62776           829.56314          2052.31911          1882.99589           713.86060           697.54492          6238.68078           749.79453          1212.50766          1892.17769          3713.32522          5575.26512           480.33129          1338.30721           871.09177          1045.94571          2048.78288           755.06043           802.23729          1398.90526           822.01811           579.23994           406.80353           819.64052          3128.59808           475.44722          3072.03728          1737.21928          2128.66640          1413.60946          1966.22197          1502.76628           411.92694          4239.41019          1648.64872          1926.95052          1987.70872          2308.80909          6211.36111           902.58374          5472.40536           567.93770           672.85078          1607.30306          1180.24238          7835.67260          2709.87282           948.64017          1795.47352          4390.65850          2948.09521           601.37255          5295.38573          1491.89729          2598.92660          1184.33682          3499.11734          3898.26591           481.88366          3274.47575          3818.44174          2701.86087          5924.34068           852.52017           765.65898          1171.81599          2311.61301           490.25244         10289.36642          3912.25877           632.21813          1848.25110          1726.20192          2230.64359           760.70373          1177.92391         13195.80944           663.20611          2482.17600          1345.77040           497.03295           838.52307          2496.32180          5746.33726          5966.12157          1552.84739          2364.14157          2600.92706          4693.51715           715.14276          1422.18060          2238.20350          1766.03208          5510.32555           622.22160          1174.47440          2834.83997           838.68972          3714.22798          2292.28747          6980.51295          2777.56998          1312.63962          1198.73188           625.27506          5490.13082          7512.86180          2307.75501           264.01823           370.95372           810.68670           817.49523          6596.08065          1348.93703          1910.48373          3066.47814          2561.20287          5509.12960          6187.93635           358.90097           593.87280           787.66458          1241.38494           648.99418          4031.40930          3917.76831          1532.63973           676.84601          1071.01689          2308.87853          3656.00430          2536.69777          2058.39944           955.03977          4196.08839          7495.22278           482.34450           661.03654          1722.39721          7526.90868          2033.87872          2878.18440          4540.30611           741.04186          1843.43621          4391.66371           535.27373          1422.57158          1001.46923          6243.90158           885.95863          1640.99937          2916.51341          5268.95899          5230.93832          6203.61041          4270.02305          4238.18054          1725.73788           856.64911          3442.49272         11076.43070           614.49069          2462.80246          2635.15548           282.03294          2390.07899          3602.25719          2674.22016           442.45143          4632.79237           796.60376          2995.73335          4594.03222          1910.90445           764.38086          2950.33217          3617.54090          5401.04971          6414.76173          5570.39525           601.71358           654.16919          1374.59875          4796.14374          1200.34671          2692.92517           889.31611           593.892