# vtk DataFile Version 3.0
Output from R2
ASCII
DATASET UNSTRUCTURED_GRID
POINTS       1414 double
     0.00000  2968.10000   0.
     1.54000  2966.60000   0.
     3.08000  2964.90000   0.
     4.61000  2964.10000   0.
     6.15000  2963.30000   0.
     7.69000  2962.60000   0.
     9.23000  2961.50000   0.
    10.76000  2960.70000   0.
    12.30000  2960.00000   0.
    13.84000  2959.30000   0.
    15.38000  2958.70000   0.
    16.91000  2958.10000   0.
    18.45000  2957.30000   0.
    19.99000  2956.60000   0.
    21.52000  2955.80000   0.
    23.06000  2955.00000   0.
    24.60000  2954.30000   0.
    26.14000  2953.50000   0.
    27.68000  2952.80000   0.
    29.21000  2951.90000   0.
    30.75000  2951.10000   0.
    32.29000  2950.20000   0.
    33.83000  2949.50000   0.
    35.36000  2948.70000   0.
    36.90000  2948.10000   0.
    38.44000  2947.30000   0.
    39.98000  2946.70000   0.
    41.51000  2946.10000   0.
    43.05000  2945.50000   0.
    44.59000  2945.10000   0.
    46.13000  2944.50000   0.
    47.66000  2944.10000   0.
    49.20000  2943.60000   0.
    50.74000  2943.40000   0.
    52.28000  2943.00000   0.
    53.81000  2942.50000   0.
    55.35000  2942.10000   0.
    56.89000  2941.60000   0.
    58.43000  2941.00000   0.
    59.96000  2940.60000   0.
    61.50000  2940.10000   0.
    63.04000  2939.50000   0.
    64.58000  2939.10000   0.
    66.11000  2939.20000   0.
    67.65000  2939.20000   0.
    69.19000  2939.10000   0.
    70.73000  2938.90000   0.
    72.26000  2938.60000   0.
    73.80000  2938.30000   0.
    75.34000  2938.50000   0.
    76.88000  2938.70000   0.
    78.41000  2938.60000   0.
    79.95000  2938.80000   0.
    81.49000  2938.90000   0.
    83.03000  2939.10000   0.
    84.56000  2939.10000   0.
     3.42000  2957.55000   0.
     8.97000  2954.51000   0.
    14.52000  2951.86000   0.
    20.07000  2949.38000   0.
    25.63000  2946.59000   0.
    31.18000  2943.67000   0.
    36.73000  2940.99000   0.
    42.28000  2938.62000   0.
    47.83000  2936.87000   0.
    53.39000  2935.46000   0.
    58.94000  2933.69000   0.
    64.49000  2931.95000   0.
    70.04000  2931.81000   0.
    75.60000  2931.36000   0.
    81.15000  2931.70000   0.
     0.51333  2967.60000   0.
     1.02667  2967.10000   0.
     2.05333  2966.03333   0.
     2.56667  2965.46667   0.
     3.59000  2964.63333   0.
     4.10000  2964.36667   0.
     5.12333  2963.83333   0.
     5.63667  2963.56667   0.
     6.66333  2963.06667   0.
     7.17667  2962.83333   0.
     8.20333  2962.23333   0.
     8.71667  2961.86667   0.
     9.74000  2961.23333   0.
    10.25000  2960.96667   0.
    11.27333  2960.46667   0.
    11.78667  2960.23333   0.
    12.81333  2959.76667   0.
    13.32667  2959.53333   0.
    14.35333  2959.10000   0.
    14.86667  2958.90000   0.
    15.89000  2958.50000   0.
    16.40000  2958.30000   0.
    17.42333  2957.83333   0.
    17.93667  2957.56667   0.
    18.96333  2957.06667   0.
    19.47667  2956.83333   0.
    20.50000  2956.33333   0.
    21.01000  2956.06667   0.
    22.03333  2955.53333   0.
    22.54667  2955.26667   0.
    23.57333  2954.76667   0.
    24.08667  2954.53333   0.
    25.11333  2954.03333   0.
    25.62667  2953.76667   0.
    26.65333  2953.26667   0.
    27.16667  2953.03333   0.
    28.19000  2952.50000   0.
    28.70000  2952.20000   0.
    29.72333  2951.63333   0.
    30.23667  2951.36667   0.
    31.26333  2950.80000   0.
    31.77667  2950.50000   0.
    32.80333  2949.96667   0.
    33.31667  2949.73333   0.
    34.34000  2949.23333   0.
    34.85000  2948.96667   0.
    35.87333  2948.50000   0.
    36.38667  2948.30000   0.
    37.41333  2947.83333   0.
    37.92667  2947.56667   0.
    38.95333  2947.10000   0.
    39.46667  2946.90000   0.
    40.49000  2946.50000   0.
    41.00000  2946.30000   0.
    42.02333  2945.90000   0.
    42.53667  2945.70000   0.
    43.56333  2945.36667   0.
    44.07667  2945.23333   0.
    45.10333  2944.90000   0.
    45.61667  2944.70000   0.
    46.64000  2944.36667   0.
    47.15000  2944.23333   0.
    48.17333  2943.93333   0.
    48.68667  2943.76667   0.
    49.71333  2943.53333   0.
    50.22667  2943.46667   0.
    51.25333  2943.26667   0.
    51.76667  2943.13333   0.
    52.79000  2942.83333   0.
    53.30000  2942.66667   0.
    54.32333  2942.36667   0.
    54.83667  2942.23333   0.
    55.86333  2941.93333   0.
    56.37667  2941.76667   0.
    57.40333  2941.40000   0.
    57.91667  2941.20000   0.
    58.94000  2940.86667   0.
    59.45000  2940.73333   0.
    60.47333  2940.43333   0.
    60.98667  2940.26667   0.
    62.01333  2939.90000   0.
    62.52667  2939.70000   0.
    63.55333  2939.36667   0.
    64.06667  2939.23333   0.
    65.34500  2939.15000   0.
    66.88000  2939.20000   0.
    68.42000  2939.15000   0.
    69.70333  2939.03333   0.
    70.21667  2938.96667   0.
    71.24000  2938.80000   0.
    71.75000  2938.70000   0.
    72.77333  2938.50000   0.
    73.28667  2938.40000   0.
    74.31333  2938.36667   0.
    74.82667  2938.43333   0.
    75.85333  2938.56667   0.
    76.36667  2938.63333   0.
    77.64500  2938.65000   0.
    78.92333  2938.66667   0.
    79.43667  2938.73333   0.
    80.72000  2938.85000   0.
    82.00333  2938.96667   0.
    82.51667  2939.03333   0.
    83.79500  2939.10000   0.
     0.08400  2959.57200   0.
     1.19600  2958.89800   0.
     2.30800  2958.22400   0.
     4.53000  2956.94200   0.
     5.64000  2956.33400   0.
     6.75000  2955.72600   0.
     7.86000  2955.11800   0.
    10.35750  2953.84750   0.
    11.74500  2953.18500   0.
    13.13250  2952.52250   0.
    15.90750  2951.24000   0.
    17.29500  2950.62000   0.
    18.68250  2950.00000   0.
    21.18200  2948.82200   0.
    22.29400  2948.26400   0.
    23.40600  2947.70600   0.
    24.51800  2947.14800   0.
    26.74000  2946.00600   0.
    27.85000  2945.42200   0.
    28.96000  2944.83800   0.
    30.07000  2944.25400   0.
    32.56750  2943.00000   0.
    33.95500  2942.33000   0.
    35.34250  2941.66000   0.
    38.11750  2940.39750   0.
    39.50500  2939.80500   0.
    40.89250  2939.21250   0.
    43.66750  2938.18250   0.
    45.05500  2937.74500   0.
    46.44250  2937.30750   0.
    49.22000  2936.51750   0.
    50.61000  2936.16500   0.
    52.00000  2935.81250   0.
    54.77750  2935.01750   0.
    56.16500  2934.57500   0.
    57.55250  2934.13250   0.
    60.32750  2933.25500   0.
    61.71500  2932.82000   0.
    63.10250  2932.38500   0.
    65.87750  2931.91500   0.
    67.26500  2931.88000   0.
    68.65250  2931.84500   0.
    71.43000  2931.69750   0.
    72.82000  2931.58500   0.
    74.21000  2931.47250   0.
    76.98750  2931.44500   0.
    78.37500  2931.53000   0.
    79.76250  2931.61500   0.
    82.53750  2931.75500   0.
    83.92500  2931.81000   0.
     6.60134  2937.05984   0.
    20.80435  2932.52560   0.
     3.78758  2946.36592   0.
    15.48523  2940.98228   0.
    29.30091  2934.50364   0.
    23.90594  2939.46561   0.
    40.87322  2931.62711   0.
     1.03219  2951.87344   0.
    10.83406  2946.32292   0.
    20.42668  2943.42459   0.
    48.80952  2930.83467   0.
    35.50309  2935.49258   0.
     7.54365  2949.73854   0.
    28.57967  2939.84283   0.
    15.90963  2945.83181   0.
    44.30452  2933.27820   0.
    -0.12722  2955.42655   0.
    24.47411  2943.04615   0.
     4.45051  2952.86019   0.
    40.01017  2935.22543   0.
    52.75593  2931.58993   0.
    13.75183  2934.27842   0.
    32.31862  2938.44653   0.
     0.40990  2931.04902   0.
    19.20708  2946.27332   0.
    57.19103  2930.55709   0.
    -0.97178  2947.27328   0.
    19.39705  2939.49643   0.
    11.08068  2950.12444   0.
    32.86215  2930.47012   0.
     7.41320  2941.82707   0.
    13.76382  2948.77946   0.
    27.17579  2942.79365   0.
     7.27112  2952.68663   0.
     2.71547  2954.94653   0.
    22.91159  2945.17994   0.
     2.00816  2941.86911   0.
    24.73355  2934.79062   0.
    47.86753  2934.00196   0.
    50.62083  2933.29089   0.
    60.15732  2930.28185   0.
    37.65425  2937.53830   0.
    44.64836  2929.77041   0.
    10.93416  2939.02064   0.
     4.26476  2949.76242   0.
    36.78915  2931.78219   0.
     7.36345  2946.13476   0.
    30.92470  2941.06806   0.
     6.19921  2931.10091   0.
    35.16618  2938.51604   0.
    16.36294  2929.87801   0.
    13.43632  2943.77014   0.
    42.64967  2935.50406   0.
    26.89596  2931.23775   0.
     1.59760  2936.73753   0.
    17.19200  2948.13905   0.
    -0.61497  2957.60981   0.
    26.49360  2937.36117   0.
     9.56799  2951.50953   0.
    17.55858  2943.77119   0.
    55.26825  2932.33039   0.
    22.03247  2936.46128   0.
    16.10828  2937.24515   0.
    22.48452  2941.40733   0.
    20.86327  2946.43955   0.
    29.71126  2937.35408   0.
    32.14062  2935.59882   0.
    45.26358  2935.44707   0.
    29.19256  2942.39482   0.
    25.22337  2944.48902   0.
    25.77440  2940.40763   0.
     5.12787  2951.33100   0.
     9.72036  2943.07255   0.
     0.63027  2944.64860   0.
     5.15669  2954.13690   0.
    33.80274  2940.56791   0.
     1.57076  2956.41210   0.
     9.31000  2947.97928   0.
     9.87726  2933.53233   0.
    53.60824  2932.85261   0.
    40.63972  2936.89193   0.
    13.47285  2946.23828   0.
    37.68088  2934.75035   0.
    46.32767  2931.88185   0.
    18.64740  2941.16071   0.
    13.09413  2950.32980   0.
    18.01744  2935.92389   0.
     0.55332  2948.73049   0.
     5.35766  2947.55011   0.
    42.44669  2933.52960   0.
    57.75733  2932.24094   0.
    23.68300  2931.83870   0.
    19.94397  2947.74183   0.
    61.81887  2931.15328   0.
[...]
POINT_DATA      1414
CELL_DATA      2568
SCALARS Resistivity(ohm.m) double 1
LOOKUP_TABLE default
          1175.22730          1800.74517          2204.97970          1124.21313           543.14560          2207.21471          1321.27643          1565.87643          1639.16763          2155.99619           725.31305          2148.66956           573.98307          2305.28844          2261.10853          2021.72801          1600.94043           468.87244           455.22642          2391.59047          1213.13334          2047.31666          1296.40230           593.89592          1881.46948           474.22432           282.20020          2198.43962          2181.61766          2221.17179           483.54880           480.40862          1711.73534           391.27638           388.90778          1750.69873           670.73746           945.62172          1242.94587          1609.49213          1804.70680           636.42897           438.60254          2293.37193           329.29531           405.94605          2979.93809           783.26265           583.86173           885.15187          2648.47696          1861.18378           994.13329          1587.21605          2270.29086           907.50078           366.34962          2208.44714           401.64479          1085.77641           552.89688          2129.71067           469.70872          1993.34913           280.85264          1547.88195          2138.75053          2101.90012           298.17101           714.05216           454.04219           720.22606          2038.99977           401.97069           348.40764          2923.14282          1504.01022           463.31331           366.58583          2805.77974          2676.26224          1502.43085           383.44829           409.19833          2049.14278           784.15220           338.58494          2074.10716           808.85698          1988.67989          1058.35136           348.73514          2203.21236           394.02779          1852.06232          1995.85553           568.71649          1251.58327          2168.43984          1003.34110          1623.86012           548.90236           627.57713           666.78521          1056.91506          1685.42561           527.12192           912.21198          2189.41934          1354.29716           419.46353          1102.53338          2499.70363          1912.30840          2008.68018          1297.16437          1002.48020          1538.83891           421.49972           325.99161          2296.32006          1456.53110          3020.42850           707.56490           537.50033          2089.50211          2383.92942          3261.12821          1957.94071          1473.08866          2108.43675          1108.50328          1232.72998          2261.36598           788.02013          2811.92447           415.06997          1666.33576          1009.57520          1350.46146          1652.70658           525.90106           610.25315          1371.01202          1683.14196           567.77374           432.48951          1533.16143          1962.03194           512.34020          2255.19174          1908.90204           902.06527           629.81318          2300.05035           318.12455          1710.86382           402.53594          2194.53933          1283.82748          1183.42860           515.50007          2291.38608           467.06289          2209.97720           561.05117          1491.23242          1914.81733          1896.70896          1745.80756           653.38849           735.59632           681.63118           287.05729           372.27758           869.25846           801.00935          3532.45592          2626.84941          1141.21314          2253.07227          1474.53182          2040.46516           716.56871           551.33737           965.05079           858.13902           639.43439           800.74341          2467.54399          1219.59418          2409.72169           576.33838          2655.39402           282.48604           484.27706          2597.84196          2132.96759          1267.17445           387.60048           318.76714           752.06980          1918.62199          1459.36012          1912.96014          1050.49714          3829.06840          2285.04286           365.60833          2248.82602          1336.65671           594.86977           386.53608           350.29242           555.15974          1214.79147          2320.07277           452.28459          1281.63887           510.76744           807.21752          1383.00180          1115.59647           365.26011           614.67926           628.78417           416.22146           525.44536          1272.99950           319.80145          1006.93910          2120.52506          1465.35077          2921.49230          2390.46531          1772.53064          2441.12601          1500.10303          1467.77769          1410.87245          2582.50206           611.27339           957.67020           400.59616          2463.76576           294.07910          1936.24979           488.59074           470.80255          2188.77473           285.86417          2129.15449          1846.05133           667.18827          2036.24792           951.25946           593.25067           704.28826           665.99570          2853.15194           566.65154          2221.92726           502.93597           417.22369           412.27822          1749.89123           371.02358          2199.59248           897.65176          2278.58857           943.26407          2191.96519          2385.09170          2209.58033           428.01581          1686.51488          2254.69932           436.60512           635.05959           599.03679           450.32384          1385.48104           301.09393           914.93445           857.54157          2203.17419           443.46264          2432.29284           594.07003           496.13848           870.41411           333.23359          2306.73419           641.38644          1978.09694          2255.92755          1511.40618           527.72291           431.29199           628.19458           965.94901           413.11621          2537.83247          2513.72882           405.96569          1811.68855          1323.99932          1566.28069          1923.76440           417.92552           672.44061           565.50857           295.39103          2225.50875           709.81328           360.77929           509.64803          1131.09359          2726.08537           433.44770          3258.91045           358.10473           965.94300           480.05886           521.72843          1217.72767           441.44222          1385.16422          1050.63303          2847.26958          1840.31182          2179.44796           488.73992          1681.11286           327.15356           359.36133           572.58677           587.76978          3155.21727           534.53400          2155.80390           446.92015          2144.44758           466.58070           568.57200          1800.74948          1221.73848          1141.20842           429.94849          2182.62167           477.59280          2428.90366           763.22501           406.56034           434.38675          2091.03690           491.65826          1685.53879           310.35884           364.37854           751.95726          1510.89765           848.73742           505.53481          1361.05176           482.05088           388.93972          2271.92264          1893.20720          2610.06914           445.47517          1300.03490          1439.25466           954.86160           297.35357          2636.66448           363.35610           449.57853           433.24208          2033.54924          1393.16328           461.72880          1764.86230          2402.08363           297.42031          1346.13133           566.74115          1406.17026           407.65212          1596.94751           687.70190           318.98470          1430.60948          1405.25908           461.26339           741.21256           552.15328          1378.53821          1733.90151           983.50433           562.32806           607.23401          1398.19556          1425.68228          1363.90241           847.30492           493.13306           929.34571          2225.23403          1747.36450          1595.90214          2178.60094           968.47551           614.27790          1108.53710          2531.65135           615.58812           879.97174           649.34258          1864.32523           934.52499           350.00721          2200.01343          1495.78188          1333.20294           286.95334          1715.99169           561.89314          1417.40033           498.44273          1389.74652           489.64918           457.61546          2001.95092          1036.50113          1511.21178          1585.98274           596.87586          1879.25921          1316.52088          3555.16154           578.82029          1202.19070          2120.92006          1160.96614          1090.61097          1277.44134          1234.78472          4124.14589           832.40900          3314.48348          1653.69093          1566.26026          1206.70700          1783.90877           799.33791          2129.89525           906.89232          1421.65928           444.51877          1933.56678          1374.36016           866.58674          1358.07484          2190.30301           801.72500           797.42282          1181.97785          1800.70455          1767.94623           762.42639          1853.07138           854.08289           295.51602          1971.44463          3836.85931          1026.94565           382.37620          1603.59148           682.70032          1037.10171          2022.30458           485.49050           550.52887          2174.36142          2788.39767          1277.33788           390.68742           626.53694           748.25306          1317.73524          1135.43838          1074.14095          1499.84724           780.31563          1448.54710           746.40229          1070.19341          2497.97412          1824.46306           608.77937           356.45345           571.42216          1328.59471           753.92100          1263.99792          3600.06533          1304.96626           337.10661           457.03621          1296.67172          1244.34350           845.68570           383.57077          3135.67102          1376.30242           348.03104          3263.77277          2267.92083           425.48161          1470.25223          1285.14062          1090.86607          1203.65758          1093.68862           524.87166          1713.14827          1427.68949          1453.72959          1316.76727           682.62463          1873.05486           466.70988          1218.67112           559.82114           439.62864           703.41648          1815.77510          1131.94925           922.21450           455.45149           376.90507          1781.25967          1183.31899          4110.37124          4497.28094          3445.33556          2120.34507          2043.00342          2137.02596          3469.85285          4681.01464           640.55667          4556.14570           412.87808          1128.60176          1529.42807           620.02911          3704.12574          4818.95269          1299.01011           444.05854          2038.86251          2801.84289           806.05468           838.31219          1439.87234          4593.80658          1380.79300          2396.10671           949.46723           578.69040          1492.58936          1568.37055           436.25550          3498.95383           500.10293          1379.95346          5034.69067          4224.16105          1813.24383          5159.18267           332.99984           821.49897           458.78606          1917.87464          2823.23042          1795.93722          3011.89597          1802.04414          2745.87634           796.51615          1623.02152          1334.84456          1784.91048          8513.34299          3735.91812           972.80228          4953.39107          3902.84886           848.22395           665.38429          4922.06407          2902.57064          4650.78966          5057.32904          1449.96389           865.39314           622.51735           524.29626           828.19909          4327.08297          1677.55735          1046.30237          1657.64787           372.40099          1160.13155          1879.77933          3761.07830          1049.52480           861.59690           665.08759           804.75205          1609.00588          1446.45426           854.78905          3237.26625          2859.50239          3373.09357          3243.77370          5980.63655          4094.54187          2703.66347           544.50087          4496.18201          1242.14363          1633.92411           623.98992          1405.36781           863.05593           376.03193          6291.41811          5186.01955          1519.60238          1566.64417          2902.31023          2305.93305          3327.64368          2854.61464           925.86401          1300.01977           602.39834           774.68533           387.05210           518.87556           784.91014           609.24538          2006.88897          4089.89122          3612.61552          1514.33735          2279.23901          1476.22089          1606.24767          7724.76033          5021.82483          1906.89209           397.60068           570.99988          4935.54509           681.75618          4111.38987          4433.26149          1124.88075          2272.41271           691.82788           898.07451          1137.18998          2297.51321          2345.01783          2675.05946           618.88085           484.27411          1287.94606           406.64641           600.42753           435.15475          3622.40715          5262.86134           442.56923          3106.05950           834.95284          2740.13450          1351.23157           634.09276           659.68851           684.17325           639.58286          1951.63241           772.45116          1481.13456           709.87147          2488.64267          1849.70419          3797.12870          2717.29015           633.30004           592.92247           377.68705          3013.54974           767.73140           737.94154          1355.15833          2666.48262           678.22643           842.12466           540.16195          1327.21227           988.90385          1557.05197          1392.85121           612.65350           806.15051           734.77322          2785.75626          2033.62306          1205.65194          7232.51629          1116.17447           874.57337           923.12529          1587.31528          2523.83666          1579.66886          1582.16335          1523.52001          2726.23471           692.31945          7449.77644          1398.77209          2838.30246           817.80746          1296.35856          4039.54067          2932.48680           755.06863          1139.82618          3384.54060           452.95053           548.28756          1259.34117          2854.39063          5608.57813          1518.71646          6885.01551          1266.18195          1750.39139          1542.48120          1321.19419           436.45918           837.00831          2822.56068           644.07216          4118.22794           610.25269          3250.84228           826.49430           657.04706          1434.20790          2021.97006          2970.30649          4847.16716          2855.86773          1582.25059          1836.74240          1378.27631          5485.23084          7136.93147          1980.77915           987.97569          2893.80436           621.11724          1250.26371           830.83286          2749.26339          1275.71490          1028.75473           564.60223           608.13686          3748.97900          1002.70618           778.39781          5948.51885          3939.88842          2320.58912          1337.71972          7939.73808           795.06769          2560.94683          2850.34553          2295.05154          1105.46896          2985.47541          5160.91686          1880.04691           429.67295           740.11915           874.24712          1855.46234          1814.31336           668.65323           700.84620          6311.13317           809.43713          1133.22958          1981.24575          4123.03005          5221.83486           459.16191          1411.06982           875.94421          1109.25664          1931.93142           743.11124           832.77730          1454.56278           824.33179           582.21983           399.85635           762.71571          3054.47064           462.29496          3028.43919          1810.85051          2077.98574          1420.29277          1750.51967          1599.45995           403.57967          3982.00274          1558.46782          1917.08616          1948.81451          2129.86544          5595.77861           924.85046          5504.58393           609.88522           689.91922          1656.95864          1292.50600          7266.78526          2723.16108           899.31796          1737.86491          4106.92608          3412.06684           651.52389          4997.10163          1495.99286          2818.19494          1133.29508          3441.12588          3712.62313           504.54421          3434.72324          3912.60087          2703.31563          5390.16210           854.50849           733.18724          1280.00806          2232.41345           436.03095          9244.05763          3788.93219           676.92910          1628.65246          1678.29617          2123.38695           776.44430          1263.93516         12549.48028           651.86675          2231.89212          1303.61404           451.10639           775.68514          2614.60887          5496.06424          6007.55768          1588.76869          2547.72377          2594.24026          4535.34847           739.41328          1383.68899          2087.33204          1736.30258          5358.30538           615.29344          1279.42107          2814.86376           835.14626          3974.14539          2388.54103          6723.87971          2330.75887          1145.47417          1163.61410           611.93614          5084.84683          7107.11226          1960.84862           319.11072           372.91949           796.49800           798.51137          6201.89286          1473.35288          2170.05791          3156.25780          2559.53443          5501.67370          5608.77686           363.84984           662.90550           783.25270          1213.36325           651.56358          4344.39801          3816.11052          1416.13626           641.67077          1105.91098          2240.57270          3683.14338          2235.44736          2166.88178           868.77491          4090.60141          7509.97822           435.56316           655.56790          1750.67669          7321.10701          1988.48996          2876.13969          5043.01435           687.99379          1764.85817          4422.63012           559.89424          1497.06913           960.57149          5770.85442           910.73433          1785.90396          3052.23836          5362.60843          4866.19864          5984.77704          4449.48605          4445.24394          1806.30186           858.97991          3358.88456         10155.18990           608.76982          2655.60727          2708.94003           316.44283          2501.57200          3514.19491          2540.28071           467.88605          4242.93089           757.86126          3426.25607          4317.30269          1924.14433           783.15477          3196.19567          3461.12008          5136.54404          6026.91464          5479.79256           652.39271           644.47602          1273.78035          4858.73322          1095.96419          2763.13031           830.03662           627.705