# vtk DataFile Version 3.0
Output from R2
ASCII
DATASET UNSTRUCTURED_GRID
POINTS       1414 double
     0.00000  2968.10000   0.
     1.54000  2966.60000   0.
     3.08000  2964.90000   0.
     4.61000  2964.10000   0.
     6.15000  2963.30000   0.
     7.69000  2962.60000   0.
     9.23000  2961.50000   0.
    10.76000  2960.70000   0.
    12.30000  2960.00000   0.
    13.84000  2959.30000   0.
    15.38000  2958.70000   0.
    16.91000  2958.10000   0.
    18.45000  2957.30000   0.
    19.99000  2956.60000   0.
    21.52000  2955.80000   0.
    23.06000  2955.00000   0.
    24.60000  2954.30000   0.
    26.14000  2953.50000   0.
    27.68000  2952.80000   0.
    29.21000  2951.90000   0.
    30.75000  2951.10000   0.
    32.29000  2950.20000   0.
    33.83000  2949.50000   0.
    35.36000  2948.70000   0.
    36.90000  2948.10000   0.
    38.44000  2947.30000   0.
    39.98000  2946.70000   0.
    41.51000  2946.10000   0.
    43.05000  2945.50000   0.
    44.59000  2945.10000   0.
    46.13000  2944.50000   0.
    47.66000  2944.10000   0.
    49.20000  2943.60000   0.
    50.74000  2943.40000   0.
    52.28000  2943.00000   0.
    53.81000  2942.50000   0.
    55.35000  2942.10000   0.
    56.89000  2941.60000   0.
    58.43000  2941.00000   0.
    59.96000  2940.60000   0.
    61.50000  2940.10000   0.
    63.04000  2939.50000   0.
    64.58000  2939.10000   0.
    66.11000  2939.20000   0.
    67.65000  2939.20000   0.
    69.19000  2939.10000   0.
    70.73000  2938.90000   0.
    72.26000  2938.60000   0.
    73.80000  2938.30000   0.
    75.34000  2938.50000   0.
    76.88000  2938.70000   0.
    78.41000  2938.60000   0.
    79.95000  2938.80000   0.
    81.49000  2938.90000   0.
    83.03000  2939.10000   0.
    84.56000  2939.10000   0.
     3.42000  2957.55000   0.
     8.97000  2954.51000   0.
    14.52000  2951.86000   0.
    20.07000  2949.38000   0.
    25.63000  2946.59000   0.
    31.18000  2943.67000   0.
    36.73000  2940.99000   0.
    42.28000  2938.62000   0.
    47.83000  2936.87000   0.
    53.39000  2935.46000   0.
    58.94000  2933.69000   0.
    64.49000  2931.95000   0.
    70.04000  2931.81000   0.
    75.60000  2931.36000   0.
    81.15000  2931.70000   0.
     0.51333  2967.60000   0.
     1.02667  2967.10000   0.
     2.05333  2966.03333   0.
     2.56667  2965.46667   0.
     3.59000  2964.63333   0.
     4.10000  2964.36667   0.
     5.12333  2963.83333   0.
     5.63667  2963.56667   0.
     6.66333  2963.06667   0.
     7.17667  2962.83333   0.
     8.20333  2962.23333   0.
     8.71667  2961.86667   0.
     9.74000  2961.23333   0.
    10.25000  2960.96667   0.
    11.27333  2960.46667   0.
    11.78667  2960.23333   0.
    12.81333  2959.76667   0.
    13.32667  2959.53333   0.
    14.35333  2959.10000   0.
    14.86667  2958.90000   0.
    15.89000  2958.50000   0.
    16.40000  2958.30000   0.
    17.42333  2957.83333   0.
    17.93667  2957.56667   0.
    18.96333  2957.06667   0.
    19.47667  2956.83333   0.
    20.50000  2956.33333   0.
    21.01000  2956.06667   0.
    22.03333  2955.53333   0.
    22.54667  2955.26667   0.
    23.57333  2954.76667   0.
    24.08667  2954.53333   0.
    25.11333  2954.03333   0.
    25.62667  2953.76667   0.
    26.65333  2953.26667   0.
    27.16667  2953.03333   0.
    28.19000  2952.50000   0.
    28.70000  2952.20000   0.
    29.72333  2951.63333   0.
    30.23667  2951.36667   0.
    31.26333  2950.80000   0.
    31.77667  2950.50000   0.
    32.80333  2949.96667   0.
    33.31667  2949.73333   0.
    34.34000  2949.23333   0.
    34.85000  2948.96667   0.
    35.87333  2948.50000   0.
    36.38667  2948.30000   0.
    37.41333  2947.83333   0.
    37.92667  2947.56667   0.
    38.95333  2947.10000   0.
    39.46667  2946.90000   0.
    40.49000  2946.50000   0.
    41.00000  2946.30000   0.
    42.02333  2945.90000   0.
    42.53667  2945.70000   0.
    43.56333  2945.36667   0.
    44.07667  2945.23333   0.
    45.10333  2944.90000   0.
    45.61667  2944.70000   0.
    46.64000  2944.36667   0.
    47.15000  2944.23333   0.
    48.17333  2943.93333   0.
    48.68667  2943.76667   0.
    49.71333  2943.53333   0.
    50.22667  2943.46667   0.
    51.25333  2943.26667   0.
    51.76667  2943.13333   0.
    52.79000  2942.83333   0.
    53.30000  2942.66667   0.
    54.32333  2942.36667   0.
    54.83667  2942.23333   0.
    55.86333  2941.93333   0.
    56.37667  2941.76667   0.
    57.40333  2941.40000   0.
    57.91667  2941.20000   0.
    58.94000  2940.86667   0.
    59.45000  2940.73333   0.
    60.47333  2940.43333   0.
    60.98667  2940.26667   0.
    62.01333  2939.90000   0.
    62.52667  2939.70000   0.
    63.55333  2939.36667   0.
    64.06667  2939.23333   0.
    65.34500  2939.15000   0.
    66.88000  2939.20000   0.
    68.42000  2939.15000   0.
    69.70333  2939.03333   0.
    70.21667  2938.96667   0.
    71.24000  2938.80000   0.
    71.75000  2938.70000   0.
    72.77333  2938.50000   0.
    73.28667  2938.40000   0.
    74.31333  2938.36667   0.
    74.82667  2938.43333   0.
    75.85333  2938.56667   0.
    76.36667  2938.63333   0.
    77.64500  2938.65000   0.
    78.92333  2938.66667   0.
    79.43667  2938.73333   0.
    80.72000  2938.85000   0.
    82.00333  2938.96667   0.
    82.51667  2939.03333   0.
    83.79500  2939.10000   0.
     0.08400  2959.57200   0.
     1.19600  2958.89800   0.
     2.30800  2958.22400   0.
     4.53000  2956.94200   0.
     5.64000  2956.33400   0.
     6.75000  2955.72600   0.
     7.86000  2955.11800   0.
    10.35750  2953.84750   0.
    11.74500  2953.18500   0.
    13.13250  2952.52250   0.
    15.90750  2951.24000   0.
    17.29500  2950.62000   0.
    18.68250  2950.00000   0.
    21.18200  2948.82200   0.
    22.29400  2948.26400   0.
    23.40600  2947.70600   0.
    24.51800  2947.14800   0.
    26.74000  2946.00600   0.
    27.85000  2945.42200   0.
    28.96000  2944.83800   0.
    30.07000  2944.25400   0.
    32.56750  2943.00000   0.
    33.95500  2942.33000   0.
    35.34250  2941.66000   0.
    38.11750  2940.39750   0.
    39.50500  2939.80500   0.
    40.89250  2939.21250   0.
    43.66750  2938.18250   0.
    45.05500  2937.74500   0.
    46.44250  2937.30750   0.
    49.22000  2936.51750   0.
    50.61000  2936.16500   0.
    52.00000  2935.81250   0.
    54.77750  2935.01750   0.
    56.16500  2934.57500   0.
    57.55250  2934.13250   0.
    60.32750  2933.25500   0.
    61.71500  2932.82000   0.
    63.10250  2932.38500   0.
    65.87750  2931.91500   0.
    67.26500  2931.88000   0.
    68.65250  2931.84500   0.
    71.43000  2931.69750   0.
    72.82000  2931.58500   0.
    74.21000  2931.47250   0.
    76.98750  2931.44500   0.
    78.37500  2931.53000   0.
    79.76250  2931.61500   0.
    82.53750  2931.75500   0.
    83.92500  2931.81000   0.
     6.60134  2937.05984   0.
    20.80435  2932.52560   0.
     3.78758  2946.36592   0.
    15.48523  2940.98228   0.
    29.30091  2934.50364   0.
    23.90594  2939.46561   0.
    40.87322  2931.62711   0.
     1.03219  2951.87344   0.
    10.83406  2946.32292   0.
    20.42668  2943.42459   0.
    48.80952  2930.83467   0.
    35.50309  2935.49258   0.
     7.54365  2949.73854   0.
    28.57967  2939.84283   0.
    15.90963  2945.83181   0.
    44.30452  2933.27820   0.
    -0.12722  2955.42655   0.
    24.47411  2943.04615   0.
     4.45051  2952.86019   0.
    40.01017  2935.22543   0.
    52.75593  2931.58993   0.
    13.75183  2934.27842   0.
    32.31862  2938.44653   0.
     0.40990  2931.04902   0.
    19.20708  2946.27332   0.
    57.19103  2930.55709   0.
    -0.97178  2947.27328   0.
    19.39705  2939.49643   0.
    11.08068  2950.12444   0.
    32.86215  2930.47012   0.
     7.41320  2941.82707   0.
    13.76382  2948.77946   0.
    27.17579  2942.79365   0.
     7.27112  2952.68663   0.
     2.71547  2954.94653   0.
    22.91159  2945.17994   0.
     2.00816  2941.86911   0.
    24.73355  2934.79062   0.
    47.86753  2934.00196   0.
    50.62083  2933.29089   0.
    60.15732  2930.28185   0.
    37.65425  2937.53830   0.
    44.64836  2929.77041   0.
    10.93416  2939.02064   0.
     4.26476  2949.76242   0.
    36.78915  2931.78219   0.
     7.36345  2946.13476   0.
    30.92470  2941.06806   0.
     6.19921  2931.10091   0.
    35.16618  2938.51604   0.
    16.36294  2929.87801   0.
    13.43632  2943.77014   0.
    42.64967  2935.50406   0.
    26.89596  2931.23775   0.
     1.59760  2936.73753   0.
    17.19200  2948.13905   0.
    -0.61497  2957.60981   0.
    26.49360  2937.36117   0.
     9.56799  2951.50953   0.
    17.55858  2943.77119   0.
    55.26825  2932.33039   0.
    22.03247  2936.46128   0.
    16.10828  2937.24515   0.
    22.48452  2941.40733   0.
    20.86327  2946.43955   0.
    29.71126  2937.35408   0.
    32.14062  2935.59882   0.
    45.26358  2935.44707   0.
    29.19256  2942.39482   0.
    25.22337  2944.48902   0.
    25.77440  2940.40763   0.
     5.12787  2951.33100   0.
     9.72036  2943.07255   0.
     0.63027  2944.64860   0.
     5.15669  2954.13690   0.
    33.80274  2940.56791   0.
     1.57076  2956.41210   0.
     9.31000  2947.97928   0.
     9.87726  2933.53233   0.
    53.60824  2932.85261   0.
    40.63972  2936.89193   0.
    13.47285  2946.23828   0.
    37.68088  2934.75035   0.
    46.32767  2931.88185   0.
    18.64740  2941.16071   0.
    13.09413  2950.32980   0.
    18.01744  2935.92389   0.
     0.55332  2948.73049   0.
     5.35766  2947.55011   0.
    42.44669  2933.52960   0.
    57.75733  2932.24094   0.
    23.68300  2931.83870   0.
    19.94397  2947.74183   0.
    61.81887  2931.15328   0.
[...]
POINT_DATA      1414
CELL_DATA      2568
SCALARS Resistivity(ohm.m) double 1
LOOKUP_TABLE default
          1190.08744          1699.55320          2271.60776          1137.74975           504.96994          2127.29096          1355.67151          1561.10838          1584.13456          2057.88636           757.41253          2058.70978           532.96701          2170.38791          2147.78010          1937.26958          1525.51042           453.40318           492.45789          2255.15009          1283.06071          1968.51333          1277.30883           603.48877          1766.77412           494.84111           256.71103          2089.25021          2133.19775          2236.07330           508.46609           499.17641          1621.91052           404.96940           364.70710          1633.64393           738.33208           962.41411          1230.22553          1517.13178          1742.49937           647.87410           458.47549          2229.53314           327.73796           419.38789          2878.91660           818.04725           556.10331          1015.31183          2452.06531          1756.97484          1062.40334          1516.87260          2232.14906           916.39101           355.79398          2177.87932           453.81987          1149.55018           505.56351          2001.88820           446.70934          1923.86225           261.79318          1501.21886          2000.20426          1995.30209           283.96472           718.72892           477.50005           814.43431          1945.97049           395.13492           311.92838          2966.03453          1485.09618           454.27104           320.56590          2664.20093          2494.29520          1532.59923           427.89998           429.10417          1924.94425           786.00517           329.96206          2018.35606           930.42979          1886.01392          1083.84979           354.34590          2159.83174           355.42248          1699.78828          1888.44309           544.33609          1306.38040          2056.00314          1021.98630          1566.41002           523.27845           611.53954           676.48355          1017.13381          1616.34807           508.41288           965.47574          2091.86686          1400.55089           382.89327          1215.80266          2478.76090          1827.24230          1932.87107          1276.61284          1128.61301          1473.41771           450.32200           312.45543          2189.48610          1432.94831          2986.42040           695.61800           523.05870          1949.98316          2352.59158          3284.70413          1888.58009          1472.49099          1984.42138          1117.32408          1217.71850          2112.67345           807.70701          2869.78535           378.28996          1588.91536          1023.20893          1322.38911          1575.42561           511.88534           601.48307          1407.04739          1595.08193           547.78076           477.75728          1484.18384          1835.33667           533.51526          2258.45809          1807.82324           939.24307           660.18735          2140.59430           282.04792          1699.96860           410.50697          2125.52723          1260.23260          1252.47942           518.13605          2273.27962           498.64507          2145.99056           503.89570          1456.57696          1815.97503          1834.72359          1649.13551           685.03461           736.66679           669.91925           267.92667           410.77322           976.96368           801.93677          3712.67494          2653.92645          1185.14201          2117.31304          1527.69531          1913.20132           706.21977           511.43478           973.78588           859.84736           637.82889           888.57597          2355.91079          1207.85587          2271.98540           593.52939          2515.72945           265.72813           513.31337          2433.66532          2021.12410          1274.62202           418.49982           279.23491           850.52985          1846.94663          1406.18238          1835.65518          1063.65324          4077.06171          2263.60678           389.17971          2210.09714          1308.61371           570.31242           425.27685           332.68338           580.74387          1223.00723          2231.14314           473.67152          1297.27412           528.96544           922.73208          1415.39983          1150.98843           341.70790           582.74657           640.17708           371.61747           547.23585          1259.33114           318.61387          1125.45562          2010.67401          1430.81424          3024.28746          2217.05438          1754.66441          2257.64279          1547.94534          1489.76905          1380.41947          2476.10930           588.13543           963.44900           402.87847          2302.55356           262.88235          1827.01653           505.44813           444.12329          2099.84652           254.69411          2032.43155          1808.98871           672.41021          1902.87891           984.52606           574.16371           705.08649           646.44892          2958.54694           511.11209          2156.77648           486.41353           430.43927           465.59274          1734.87655           355.08985          2180.45140           899.75887          2309.85284          1053.38499          2107.95149          2377.30831          2078.31287           447.45362          1612.91745          2204.07443           443.55135           676.23294           596.11133           450.36338          1345.67044           274.24541           937.18336           928.45746          2243.84173           476.07285          2263.81815           558.37727           459.29130           988.88280           303.50179          2143.88851           649.68908          1849.48682          2145.14870          1511.98373           532.44030           437.94560           635.31576          1094.25536           461.89942          2345.44684          2456.14115           415.18616          1725.81671          1294.47654          1500.14050          1847.63387           377.21920           679.78426           516.05136           285.98434          2168.31913           765.19194           332.52830           506.44022          1240.31817          2806.94164           457.77440          3398.11527           379.27377           937.09695           435.97666           543.97006          1210.75095           487.01340          1348.21944          1059.62967          2827.27740          1741.04735          2067.99959           504.72271          1674.61841           335.64839           390.45729           588.90162           553.23223          3244.71338           558.32078          2009.10256           413.01147          2018.01893           472.80593           560.55892          1706.58926          1266.64426          1092.03806           482.43212          2040.14486           451.67950          2342.06089           763.29704           372.45936           472.58454          1950.01360           507.41042          1662.83745           308.71154           380.46224           833.67485          1454.57571           902.27656           515.16273          1324.64006           486.24436           358.28631          2202.99292          1837.86959          2655.25312           443.16032          1274.05080          1394.28026          1079.68352           287.78298          2573.83511           394.10805           463.36956           437.63625          1901.13997          1358.36750           431.01284          1691.81845          2229.82803           260.65234          1311.93410           523.51241          1466.34076           450.71378          1613.21549           692.54815           325.89315          1382.94895          1396.96983           423.68460           794.25168           560.63706          1441.16982          1643.69949          1066.04900           505.58504           615.53076          1381.37932          1392.98885          1358.31590           850.28148           512.97431           936.71347          2142.27031          1690.46958          1579.76548          2035.77261          1065.97459           613.70644          1211.96810          2346.22980           632.99286           860.68512           639.97926          1806.35170          1019.09953           372.84396          2048.36545          1525.22906          1348.38554           274.96477          1669.48655           511.45526          1372.27549           497.23052          1391.52481           480.84427           424.69741          1863.12845          1076.00901          1457.41291          1558.43628           577.35996          1790.82463          1384.93237          3704.34097           599.92521          1204.22711          1998.57899          1163.14361          1140.63627          1257.61453          1230.69014          4433.40867           833.47925          3402.16511          1606.03509          1592.82866          1303.73947          1738.72512           803.48391          2037.37687           911.34561          1468.38439           441.93392          1812.19527          1353.13519           868.76811          1435.05728          2097.66848           802.03786           869.02659          1280.75527          1710.57649          1721.93605           873.03307          1741.47925           870.72934           280.95381          1850.95831          4105.48177          1119.29569           421.97453          1625.67720           672.23840          1154.92670          1902.16980           515.33599           549.04919          2075.14083          2615.66323          1364.36096           355.55042           653.02859           745.52076          1301.77772          1228.23125          1081.95050          1451.42545           778.75475          1407.15633           741.56415          1103.85350          2524.69282          1715.72188           604.03867           322.39623           524.37672          1355.84391           748.44165          1296.40734          3840.24079          1303.20004           350.97464           492.90784          1375.26095          1268.11625           869.87439           395.80983          3278.74604          1349.89706           359.97872          3448.33411          2108.00058           426.15109          1465.01264          1277.84785          1107.61699          1285.22654          1117.07715           541.66032          1710.67377          1385.04428          1404.61459          1398.61993           680.09376          1831.65818           452.16022          1317.88653           571.28057           436.15030           696.68161          1739.84352          1159.30254           926.22044           446.81420           383.75954          1697.40151          1205.62725          3809.96965          3919.10169          3171.51969          2015.02406          1950.59375          2150.43989          3606.77627          5288.07481           666.09395          4746.45947           421.23888          1125.74225          1485.98288           696.10451          3523.75809          4724.07667          1343.35478           458.03036          2212.34242          2694.60357           820.21995           802.85535          1366.04952          4839.47180          1466.12109          2295.82746           958.08116           648.13402          1392.58731          1425.04489           469.00108          3426.75886           541.86098          1378.38048          5131.52876          4352.11503          1789.14799          4430.85880           284.47656           848.79691           511.91572          1994.68489          2635.82834          1816.35902          3202.39384          1920.75288          2675.95795           766.15211          1698.99742          1349.22272          2020.37590          8258.32308          3802.45291           969.06463          5292.26882          4132.15554           844.44912           675.42995          4817.84821          2901.73785          4901.79685          4503.79261          1361.62440           906.72529           639.09366           551.11512           818.50447          4541.09397          1698.72019          1049.70747          1499.42702           317.40615          1065.71330          1815.39866          3465.63944          1127.40612           857.91153           664.88441           791.02740          1665.24958          1433.60101           912.29781          3014.92526          2911.92444          3312.56274          3116.34751          6423.92091          4406.57981          2686.70780           557.44235          4326.18058          1317.10307          1615.75796           655.79089          1294.71206           918.42384           382.48607          6011.24828          5378.04460          1440.50356          1619.57729          2750.45613          2256.96854          3288.33788          2916.01916           951.57708          1425.35285           536.02135           760.57699           408.66744           548.06329           815.85888           651.24369          2145.19207          4714.68102          3359.72339          1480.76864          2342.84455          1418.42236          1651.19117          7936.89943          5398.63752          1921.04223           421.64747           604.04420          4871.97657           624.70617          3820.84453          4122.07630          1043.43331          2471.01539           707.55701           933.58693          1052.23645          2558.78550          2623.49607          2620.80050           637.59618           500.42142          1133.01077           362.51933           604.61057           454.40417          3563.93578          5289.89627           474.90539          3026.73370           799.69927          2728.59667          1173.25973           638.72710           624.08696           680.00836           637.87041          1954.05436           739.35418          1426.86007           662.63024          2541.15609          1664.62569          4248.01084          2746.27251           637.31682           507.34972           324.76822          2906.71447           771.48214           788.71489          1284.07162          2622.51898           690.46587           900.40900           536.20728          1310.79220          1029.14875          1857.41808          1397.75052           593.68632           787.44410           672.16611          2645.90812          1957.76769          1228.76897          7166.37081          1048.52868           952.94493           876.46545          1781.90462          2551.03978          1465.73700          1491.19143          1627.03483          2863.53074           678.09578          7252.90217          1469.75703          2672.83996           853.20840          1147.00856          4197.20405          2776.33890           801.12192          1139.80872          3245.64026           490.80739           531.81431          1265.12633          2822.77247          5758.68666          1552.29938          7233.32786          1512.07289          1713.18746          1428.28886          1145.34300           445.07876           774.07602          2714.85201           665.55309          4286.50717           646.56688          3381.81091           847.29981           724.99383          1522.75360          2086.78876          2825.34140          4545.55984          2821.39154          1434.84212          1792.58861          1347.86477          6031.12534          7418.14323          1828.05279          1057.07550          2781.66904           604.90810          1107.89491           845.70275          2897.48830          1114.50089          1001.76537           598.26227           596.47088          3496.76827          1157.75626           859.11781          5654.10484          3973.71576          2283.44166          1352.38883          8462.58567           807.64299          2462.96128          3050.46977          2427.92815          1296.10418          3082.05892          5217.20312          1650.00615           412.39239           689.72657           836.26777          1860.83250          1791.30348           681.65984           697.70303          6187.02402           754.86238          1209.70796          1854.54942          4283.75090          5190.98967           484.38893          1310.15270           857.37119          1049.67546          1913.63459           742.31653           805.47138          1753.67075           847.10805           630.78382           421.94893           792.37829          2892.65559           517.27179          2867.59057          1619.90272          2065.12956          1359.18621          1905.51477          1439.96534           422.64976          4222.72609          1610.50433          1796.20412          2144.55510          2192.92625          5657.41011           925.25979          5916.20600           572.23071           715.31541          1700.26017          1119.32083          7555.96316          2527.94245           912.95955          1680.17309          3948.07147          3179.47989           619.53012          4995.81257          1444.07394          2742.79452          1106.74470          3320.08151          3858.90607           528.29283          3416.84475          3698.72135          2411.75002          5593.44547           910.16537           751.06182          1115.51731          2368.51938           466.35495          9727.31004          3792.93185           626.56365          1753.58085          1710.60005          2100.80814           796.90955          1119.33089         12049.42156           667.23821          2420.32871          1258.54158           489.53331           832.19378          2610.10052          5406.23753          6085.37691          1598.70106          2313.10726          2665.95079          4882.28290           707.47879          1447.99552          2178.94088          2051.54075          5560.39046           558.82236          1114.40773          2807.51488           832.07008          4256.29706          2321.86385          7117.27673          2609.38005          1203.35588          1145.58375           603.53826          5143.11925          7452.28440          2138.19971           317.69836           391.67809           777.01165           747.33617          6584.79213          1337.16416          2149.43882          2957.94057          2347.09105          5552.08281          5924.93730           362.24833           604.05523           775.44089          1273.54577           700.19616          4253.75423          3951.67871          1398.07156           674.82374          1040.98342          2221.41188          3798.51113          2465.88701          2250.78796           971.78080          4512.21941          7300.83416           469.44548           697.44175          1588.89330          7407.25861          1967.61967          2795.67324          4664.73317           740.03893          2010.61870          4430.62407           554.25253          1420.63908          1012.42521          6096.89605           895.92982          1609.68555          3032.08738          5206.94230          5175.79007          6397.17587          4236.05450          4787.31239          1804.87512           877.48839          3570.24459         10589.19209           671.33850          2687.07599          2685.61377           282.27786          2467.71070          3589.55445          2820.66616           437.29439          4534.73594           809.90753          3315.39590          4181.33894          1864.14991           783.11546          3325.05304          3494.29829          5136.77244          6392.31491          5886.59428           656.08850           653.74373          1325.26019          4757.36043          1101.78695          2832.67072           941.93440           618.157