# vtk DataFile Version 3.0
Output from R2
ASCII
DATASET UNSTRUCTURED_GRID
POINTS       1414 double
     0.00000  2968.10000   0.
     1.54000  2966.60000   0.
     3.08000  2964.90000   0.
     4.61000  2964.10000   0.
     6.15000  2963.30000   0.
     7.69000  2962.60000   0.
     9.23000  2961.50000   0.
    10.76000  2960.70000   0.
    12.30000  2960.00000   0.
    13.84000  2959.30000   0.
    15.38000  2958.70000   0.
    16.91000  2958.10000   0.
    18.45000  2957.30000   0.
    19.99000  2956.60000   0.
    21.52000  2955.80000   0.
    23.06000  2955.00000   0.
    24.60000  2954.30000   0.
    26.14000  2953.50000   0.
    27.68000  2952.80000   0.
    29.21000  2951.90000   0.
    30.75000  2951.10000   0.
    32.29000  2950.20000   0.
    33.83000  2949.50000   0.
    35.36000  2948.70000   0.
    36.90000  2948.10000   0.
    38.44000  2947.30000   0.
    39.98000  2946.70000   0.
    41.51000  2946.10000   0.
    43.05000  2945.50000   0.
    44.59000  2945.10000   0.
    46.13000  2944.50000   0.
    47.66000  2944.10000   0.
    49.20000  2943.60000   0.
    50.74000  2943.40000   0.
    52.28000  2943.00000   0.
    53.81000  2942.50000   0.
    55.35000  2942.10000   0.
    56.89000  2941.60000   0.
    58.43000  2941.00000   0.
    59.96000  2940.60000   0.
    61.50000  2940.10000   0.
    63.04000  2939.50000   0.
    64.58000  2939.10000   0.
    66.11000  2939.20000   0.
    67.65000  2939.20000   0.
    69.19000  2939.10000   0.
    70.73000  2938.90000   0.
    72.26000  2938.60000   0.
    73.80000  2938.30000   0.
    75.34000  2938.50000   0.
    76.88000  2938.70000   0.
    78.41000  2938.60000   0.
    79.95000  2938.80000   0.
    81.49000  2938.90000   0.
    83.03000  2939.10000   0.
    84.56000  2939.10000   0.
     3.42000  2957.55000   0.
     8.97000  2954.51000   0.
    14.52000  2951.86000   0.
    20.07000  2949.38000   0.
    25.63000  2946.59000   0.
    31.18000  2943.67000   0.
    36.73000  2940.99000   0.
    42.28000  2938.62000   0.
    47.83000  2936.87000   0.
    53.39000  2935.46000   0.
    58.94000  2933.69000   0.
    64.49000  2931.95000   0.
    70.04000  2931.81000   0.
    75.60000  2931.36000   0.
    81.15000  2931.70000   0.
     0.51333  2967.60000   0.
     1.02667  2967.10000   0.
     2.05333  2966.03333   0.
     2.56667  2965.46667   0.
     3.59000  2964.63333   0.
     4.10000  2964.36667   0.
     5.12333  2963.83333   0.
     5.63667  2963.56667   0.
     6.66333  2963.06667   0.
     7.17667  2962.83333   0.
     8.20333  2962.23333   0.
     8.71667  2961.86667   0.
     9.74000  2961.23333   0.
    10.25000  2960.96667   0.
    11.27333  2960.46667   0.
    11.78667  2960.23333   0.
    12.81333  2959.76667   0.
    13.32667  2959.53333   0.
    14.35333  2959.10000   0.
    14.86667  2958.90000   0.
    15.89000  2958.50000   0.
    16.40000  2958.30000   0.
    17.42333  2957.83333   0.
    17.93667  2957.56667   0.
    18.96333  2957.06667   0.
    19.47667  2956.83333   0.
    20.50000  2956.33333   0.
    21.01000  2956.06667   0.
    22.03333  2955.53333   0.
    22.54667  2955.26667   0.
    23.57333  2954.76667   0.
    24.08667  2954.53333   0.
    25.11333  2954.03333   0.
    25.62667  2953.76667   0.
    26.65333  2953.26667   0.
    27.16667  2953.03333   0.
    28.19000  2952.50000   0.
    28.70000  2952.20000   0.
    29.72333  2951.63333   0.
    30.23667  2951.36667   0.
    31.26333  2950.80000   0.
    31.77667  2950.50000   0.
    32.80333  2949.96667   0.
    33.31667  2949.73333   0.
    34.34000  2949.23333   0.
    34.85000  2948.96667   0.
    35.87333  2948.50000   0.
    36.38667  2948.30000   0.
    37.41333  2947.83333   0.
    37.92667  2947.56667   0.
    38.95333  2947.10000   0.
    39.46667  2946.90000   0.
    40.49000  2946.50000   0.
    41.00000  2946.30000   0.
    42.02333  2945.90000   0.
    42.53667  2945.70000   0.
    43.56333  2945.36667   0.
    44.07667  2945.23333   0.
    45.10333  2944.90000   0.
    45.61667  2944.70000   0.
    46.64000  2944.36667   0.
    47.15000  2944.23333   0.
    48.17333  2943.93333   0.
    48.68667  2943.76667   0.
    49.71333  2943.53333   0.
    50.22667  2943.46667   0.
    51.25333  2943.26667   0.
    51.76667  2943.13333   0.
    52.79000  2942.83333   0.
    53.30000  2942.66667   0.
    54.32333  2942.36667   0.
    54.83667  2942.23333   0.
    55.86333  2941.93333   0.
    56.37667  2941.76667   0.
    57.40333  2941.40000   0.
    57.91667  2941.20000   0.
    58.94000  2940.86667   0.
    59.45000  2940.73333   0.
    60.47333  2940.43333   0.
    60.98667  2940.26667   0.
    62.01333  2939.90000   0.
    62.52667  2939.70000   0.
    63.55333  2939.36667   0.
    64.06667  2939.23333   0.
    65.34500  2939.15000   0.
    66.88000  2939.20000   0.
    68.42000  2939.15000   0.
    69.70333  2939.03333   0.
    70.21667  2938.96667   0.
    71.24000  2938.80000   0.
    71.75000  2938.70000   0.
    72.77333  2938.50000   0.
    73.28667  2938.40000   0.
    74.31333  2938.36667   0.
    74.82667  2938.43333   0.
    75.85333  2938.56667   0.
    76.36667  2938.63333   0.
    77.64500  2938.65000   0.
    78.92333  2938.66667   0.
    79.43667  2938.73333   0.
    80.72000  2938.85000   0.
    82.00333  2938.96667   0.
    82.51667  2939.03333   0.
    83.79500  2939.10000   0.
     0.08400  2959.57200   0.
     1.19600  2958.89800   0.
     2.30800  2958.22400   0.
     4.53000  2956.94200   0.
     5.64000  2956.33400   0.
     6.75000  2955.72600   0.
     7.86000  2955.11800   0.
    10.35750  2953.84750   0.
    11.74500  2953.18500   0.
    13.13250  2952.52250   0.
    15.90750  2951.24000   0.
    17.29500  2950.62000   0.
    18.68250  2950.00000   0.
    21.18200  2948.82200   0.
    22.29400  2948.26400   0.
    23.40600  2947.70600   0.
    24.51800  2947.14800   0.
    26.74000  2946.00600   0.
    27.85000  2945.42200   0.
    28.96000  2944.83800   0.
    30.07000  2944.25400   0.
    32.56750  2943.00000   0.
    33.95500  2942.33000   0.
    35.34250  2941.66000   0.
    38.11750  2940.39750   0.
    39.50500  2939.80500   0.
    40.89250  2939.21250   0.
    43.66750  2938.18250   0.
    45.05500  2937.74500   0.
    46.44250  2937.30750   0.
    49.22000  2936.51750   0.
    50.61000  2936.16500   0.
    52.00000  2935.81250   0.
    54.77750  2935.01750   0.
    56.16500  2934.57500   0.
    57.55250  2934.13250   0.
    60.32750  2933.25500   0.
    61.71500  2932.82000   0.
    63.10250  2932.38500   0.
    65.87750  2931.91500   0.
    67.26500  2931.88000   0.
    68.65250  2931.84500   0.
    71.43000  2931.69750   0.
    72.82000  2931.58500   0.
    74.21000  2931.47250   0.
    76.98750  2931.44500   0.
    78.37500  2931.53000   0.
    79.76250  2931.61500   0.
    82.53750  2931.75500   0.
    83.92500  2931.81000   0.
     6.60134  2937.05984   0.
    20.80435  2932.52560   0.
     3.78758  2946.36592   0.
    15.48523  2940.98228   0.
    29.30091  2934.50364   0.
    23.90594  2939.46561   0.
    40.87322  2931.62711   0.
     1.03219  2951.87344   0.
    10.83406  2946.32292   0.
    20.42668  2943.42459   0.
    48.80952  2930.83467   0.
    35.50309  2935.49258   0.
     7.54365  2949.73854   0.
    28.57967  2939.84283   0.
    15.90963  2945.83181   0.
    44.30452  2933.27820   0.
    -0.12722  2955.42655   0.
    24.47411  2943.04615   0.
     4.45051  2952.86019   0.
    40.01017  2935.22543   0.
    52.75593  2931.58993   0.
    13.75183  2934.27842   0.
    32.31862  2938.44653   0.
     0.40990  2931.04902   0.
    19.20708  2946.27332   0.
    57.19103  2930.55709   0.
    -0.97178  2947.27328   0.
    19.39705  2939.49643   0.
    11.08068  2950.12444   0.
    32.86215  2930.47012   0.
     7.41320  2941.82707   0.
    13.76382  2948.77946   0.
    27.17579  2942.79365   0.
     7.27112  2952.68663   0.
     2.71547  2954.94653   0.
    22.91159  2945.17994   0.
     2.00816  2941.86911   0.
    24.73355  2934.79062   0.
    47.86753  2934.00196   0.
    50.62083  2933.29089   0.
    60.15732  2930.28185   0.
    37.65425  2937.53830   0.
    44.64836  2929.77041   0.
    10.93416  2939.02064   0.
     4.26476  2949.76242   0.
    36.78915  2931.78219   0.
     7.36345  2946.13476   0.
    30.92470  2941.06806   0.
     6.19921  2931.10091   0.
    35.16618  2938.51604   0.
    16.36294  2929.87801   0.
    13.43632  2943.77014   0.
    42.64967  2935.50406   0.
    26.89596  2931.23775   0.
     1.59760  2936.73753   0.
    17.19200  2948.13905   0.
    -0.61497  2957.60981   0.
    26.49360  2937.36117   0.
     9.56799  2951.50953   0.
    17.55858  2943.77119   0.
    55.26825  2932.33039   0.
    22.03247  2936.46128   0.
    16.10828  2937.24515   0.
    22.48452  2941.40733   0.
    20.86327  2946.43955   0.
    29.71126  2937.35408   0.
    32.14062  2935.59882   0.
    45.26358  2935.44707   0.
    29.19256  2942.39482   0.
    25.22337  2944.48902   0.
    25.77440  2940.40763   0.
     5.12787  2951.33100   0.
     9.72036  2943.07255   0.
     0.63027  2944.64860   0.
     5.15669  2954.13690   0.
    33.80274  2940.56791   0.
     1.57076  2956.41210   0.
     9.31000  2947.97928   0.
     9.87726  2933.53233   0.
    53.60824  2932.85261   0.
    40.63972  2936.89193   0.
    13.47285  2946.23828   0.
    37.68088  2934.75035   0.
    46.32767  2931.88185   0.
    18.64740  2941.16071   0.
    13.09413  2950.32980   0.
    18.01744  2935.92389   0.
     0.55332  2948.73049   0.
     5.35766  2947.55011   0.
    42.44669  2933.52960   0.
    57.75733  2932.24094   0.
    23.68300  2931.83870   0.
    19.94397  2947.74183   0.
    61.81887  2931.15328   0.
[...]
POINT_DATA      1414
CELL_DATA      2568
SCALARS Resistivity(ohm.m) double 1
LOOKUP_TABLE default
          1176.79957          1688.92294          2293.39751          1126.64508           503.18084          2147.53365          1353.19777          1549.16762          1580.61959          2055.45714           757.94053          2051.17551           533.75550          2162.67872          2136.51425          1924.10214          1516.92724           449.91511           493.84221          2273.11838          1284.15779          1952.98128          1266.73632           601.43059          1758.73374           495.21307           257.61768          2104.31857          2118.24380          2256.90220           509.65005           499.96019          1610.94160           405.28931           366.28279          1630.46346           743.75495           955.33861          1221.50586          1515.13929          1735.97759           650.50696           461.74852          2213.04972           329.25675           420.14089          2873.69347           816.51728           557.83523          1021.60274          2458.01113          1748.32487          1053.60041          1510.19480          2241.95366           911.14131           357.73949          2197.67602           453.54234          1136.94410           504.34713          1993.96148           443.26254          1906.21875           262.45700          1499.20792          2004.35381          1990.94032           284.94402           721.68977           477.46112           819.78655          1934.36301           397.67957           311.77193          2948.31453          1465.32711           450.00907           321.47848          2660.43252          2495.39472          1518.37472           428.34004           429.71597          1916.91343           787.76743           331.55254          2005.79065           935.94841          1875.65121          1072.71364           356.24059          2181.92513           354.09386          1701.47468          1878.61144           538.59532          1288.25545          2045.12534          1013.14977          1550.00477           523.36723           612.39935           678.23000          1009.99849          1610.59616           506.99803           959.36715          2096.32867          1379.74872           381.91293          1214.72644          2459.67782          1811.45127          1921.35717          1275.88937          1129.56058          1464.03883           453.14592           313.77303          2210.14081          1415.58296          2976.59009           695.16807           516.47343          1949.54989          2334.10845          3276.07985          1869.55611          1464.73387          1985.59835          1108.40608          1212.68680          2108.84294           805.54282          2848.99558           376.44885          1582.05078          1015.22644          1321.28239          1562.99381           511.62499           602.72748          1400.69368          1585.64865           548.48527           478.28478          1469.18742          1828.77061           534.37872          2275.11118          1798.51001           933.05263           664.09508          2151.36804           282.64917          1680.95307           409.74214          2110.47801          1254.55411          1236.92689           518.50319          2256.77651           496.82316          2159.88392           502.45780          1452.46567          1807.10367          1826.33374          1640.34918           688.20757           735.69526           670.25798           268.68951           411.89282           976.61717           802.18316          3699.01651          2632.99924          1170.26257          2132.08611          1508.96648          1910.29370           705.83792           511.18393           967.88953           858.44289           639.41701           889.30774          2344.81432          1201.53294          2264.57189           596.96031          2509.73062           266.41388           516.42147          2431.00195          2021.84461          1259.17012           420.72514           280.29881           854.52154          1827.96000          1398.19171          1822.51097          1054.90783          4065.08590          2274.64579           391.15012          2221.84032          1298.52910           571.10140           427.00462           334.14649           579.89170          1209.53657          2216.76460           474.11955          1280.04381           530.66212           926.46393          1394.14094          1137.33705           343.02135           583.47427           643.71266           370.80119           550.83204          1260.05997           318.92370          1121.61546          2008.36358          1415.24720          3002.72441          2228.20764          1732.72311          2265.01779          1526.50690          1467.06906          1366.38504          2465.37722           589.70181           958.95227           405.55875          2299.74794           263.69447          1817.19116           504.17660           440.09099          2104.28695           255.78751          2025.67892          1786.16627           674.64294          1899.83886           976.47040           576.31770           706.31323           646.73924          2936.42554           510.53337          2167.01676           480.36386           433.43855           465.44981          1710.85259           356.89043          2204.05915           897.81244          2324.99349          1050.14643          2105.14406          2358.68253          2090.94585           448.13450          1598.22513          2210.77498           444.56571           680.81643           599.05241           451.10032          1340.96134           274.95901           930.55359           925.52524          2266.58422           478.88732          2277.94048           559.36934           455.66216           990.00404           304.05943          2144.96040           653.66212          1843.86359          2164.85142          1489.77203           533.58030           441.11257           637.60324          1098.29173           462.63545          2354.12978          2439.75960           413.42896          1717.62618          1286.82100          1488.54590          1837.83215           375.41175           682.73462           516.35580           286.88209          2191.53353           767.48566           333.43973           504.53966          1232.14815          2785.13163           457.85586          3380.89181           379.61097           931.62577           434.23385           546.49892          1201.58920           486.21066          1345.24317          1052.45442          2812.75418          1729.13972          2078.65893           508.47581          1650.32900           336.22290           391.55968           591.76748           553.84675          3228.58944           558.59450          2008.01760           409.87664          2023.42181           468.08392           561.62638          1698.26698          1249.24494          1082.79757           481.33794          2047.19034           446.81465          2327.74636           763.53439           372.94552           474.85721          1947.48405           507.56336          1639.64291           309.85954           382.57680           836.16593          1449.88530           898.77209           519.13458          1317.33475           489.97449           359.22455          2224.78089          1816.57315          2633.99653           442.88431          1269.72888          1383.09951          1079.11758           288.22744          2559.53523           394.70121           464.53787           434.32223          1895.31506          1346.55484           427.72796          1684.95877          2231.75651           262.11976          1306.49545           523.68937          1445.88974           452.39086          1589.10546           696.33450           326.92657          1377.22919          1395.00124           420.33830           795.21444           564.94473          1429.41937          1635.70344          1058.57235           504.94301           619.84346          1365.00011          1392.75176          1341.30049           846.96751           513.78210           931.67614          2163.91235          1671.03354          1557.43951          2031.32344          1060.35421           611.58928          1213.52116          2357.93148           636.76496           856.18014           641.31723          1785.33905          1013.77608           374.36975          2052.19435          1501.97061          1329.55614           275.62884          1657.04767           511.53284          1363.43597           491.21042          1372.44554           475.17198           420.83072          1864.36479          1064.77462          1444.75387          1537.75343           579.41353          1781.63123          1376.71833          3694.24287           597.97594          1192.95734          2004.61994          1154.17195          1127.52131          1255.68784          1219.41364          4419.86728           831.25467          3390.19101          1586.93462          1575.03478          1297.70843          1723.39207           800.73870          2024.56953           907.65991          1446.55875           438.67658          1805.08929          1338.65678           866.30218          1419.54109          2107.86644           799.62956           868.69531          1269.11118          1702.04315          1700.31559           879.32522          1732.60210           866.18780           281.40432          1844.22284          4090.17578          1111.14199           422.21892          1602.14452           672.58471          1159.34706          1898.42322           518.01382           541.93128          2080.44331          2615.42256          1349.51580           355.40375           657.28732           744.15791          1288.98632          1216.65414          1074.61597          1448.50378           777.93110          1405.05587           741.06585          1091.73268          2504.79715          1707.12683           606.67858           322.46849           524.90193          1336.15323           747.37207          1278.25238          3821.42500          1287.90669           352.44212           495.10086          1358.36336          1251.18851           865.63456           398.30223          3258.26768          1350.21722           361.78786          3427.34238          2113.29289           425.15419          1444.41869          1264.67523          1096.90441          1270.41221          1105.15257           545.59724          1686.98995          1381.86506          1400.08582          1386.44545           681.17594          1810.27778           449.92358          1309.00227           575.51163           434.15640           697.01484          1722.97240          1145.64703           922.82755           445.15262           386.11796          1682.76976          1190.83274          3805.86709          3898.23791          3153.85885          1996.85126          1932.67715          2138.17069          3612.44524          5275.84734           652.96711          4735.24539           427.55607          1119.12843          1483.68710           690.00896          3563.71279          4695.64877          1323.33076           460.37956          2214.69792          2691.63895           817.81774           807.53149          1365.81349          4855.86192          1469.45172          2324.05760           962.27850           644.13486          1390.17100          1436.49073           468.37651          3427.52560           538.28283          1375.27531          5114.03219          4360.91564          1793.40697          4415.85690           287.58769           852.49331           509.63925          1973.47517          2640.38230          1816.61322          3172.80947          1925.01799          2674.74882           770.72904          1693.74193          1352.81170          2007.83490          8236.14871          3796.59352           970.57037          5310.78083          4060.80724           837.73946           670.65645          4801.51323          2893.62427          4920.98081          4505.33104          1369.04043           896.04859           633.29631           549.79297           813.21350          4543.16339          1705.05590          1042.06192          1505.31653           320.67794          1060.59986          1796.15076          3445.56956          1125.05210           862.60724           668.06006           796.75304          1640.83012          1439.45754           907.59188          2996.98397          2896.09462          3311.58723          3111.51936          6458.87073          4429.83458          2670.46169           565.18940          4370.88067          1309.28971          1616.49663           650.53934          1298.42477           921.12790           378.74887          6052.30094          5373.25938          1441.58824          1624.94181          2751.44339          2225.68006          3286.50143          2916.32298           942.15308          1430.76084           542.10299           765.68912           411.30552           544.02121           803.39869           647.27641          2151.65485          4723.88985          3372.20042          1484.05570          2333.43215          1410.08506          1642.41438          7941.06442          5392.76734          1933.51153           424.15425           593.31020          4847.11510           627.94752          3831.00054          4131.65094          1038.83101          2485.43690           703.66341           942.51316          1048.65135          2563.04208          2623.41246          2610.28958           632.76264           507.26800          1128.64336           365.66380           603.11868           457.65070          3554.48160          5305.45685           473.92577          3014.25257           803.32351          2724.44021          1180.78891           640.75003           622.00744           690.39869           632.24529          1967.29479           740.15116          1435.49305           665.74192          2558.84945          1677.28804          4231.86145          2756.18880           644.68057           517.94888           328.45950          2899.23999           767.33676           782.05657          1284.45925          2613.49900           689.46124           889.07860           535.19968          1305.97134          1038.60021          1835.02298          1403.10325           590.73938           778.80412           682.31417          2649.67864          1957.48755          1229.09541          7155.73266          1044.74380           939.24118           878.03089          1795.41093          2531.81018          1467.77789          1494.25912          1626.54118          2858.81953           665.77076          7300.56400          1483.74797          2676.34622           844.00865          1140.92579          4218.23110          2767.04280           801.89130          1133.69171          3228.29457           487.70738           529.21908          1251.73280          2836.47838          5809.95465          1550.60114          7239.43827          1487.04367          1719.11650          1432.51928          1150.83744           444.53754           770.19977          2708.51075           669.68125          4304.94977           641.01493          3385.13172           831.08821           729.40246          1511.25658          2099.73796          2818.01119          4548.46326          2816.46477          1449.77576          1807.13965          1341.67185          6062.27209          7415.49971          1843.00165          1050.70426          2759.27790           601.36369          1104.78668           841.63801          2871.40005          1113.29901          1007.23187           594.57065           592.86193          3495.63532          1136.96455           844.16739          5658.93851          3993.29587          2279.24523          1354.43518          8529.91138           804.71477          2440.80777          3073.84298          2416.20265          1273.35282          3083.27190          5230.81112          1658.16782           416.65122           697.99701           838.97832          1858.60346          1804.34019           674.09060           701.89288          6237.62655           761.41955          1200.69976          1872.50591          4288.03021          5213.90358           484.82373          1308.32562           852.44366          1050.77029          1904.93591           736.83651           805.00289          1723.24112           834.43324           626.36452           424.45339           789.41869          2893.31883           515.34006          2868.44160          1620.86337          2061.45977          1366.32742          1900.68747          1447.58634           426.53717          4234.95665          1613.31481          1812.44022          2150.58619          2200.57824          5708.36421           927.99117          5941.16021           569.39237           706.56888          1697.51529          1121.27133          7558.64577          2534.64565           904.89160          1672.99331          3971.27010          3157.50469           617.50568          5011.38985          1437.10773          2744.91944          1100.55152          3329.15726          3878.47423           525.02255          3409.34475          3687.84614          2420.33339          5607.30197           898.37256           752.59078          1117.00613          2387.20532           464.20993          9741.68725          3782.87269           626.65479          1754.25785          1723.37616          2106.35942           790.41414          1115.20801         12000.45338           669.48388          2438.25032          1256.49406           488.14120           830.24706          2597.12837          5413.57204          6044.06225          1624.36927          2298.87694          2652.24688          4874.75863           715.38963          1450.12732          2189.17364          2031.59476          5580.27547           562.88157          1114.46935          2810.70671           825.86428          4276.66327          2311.98959          7136.20927          2639.15895          1227.74310          1158.35081           599.66415          5141.50467          7465.72401          2125.30502           309.70996           392.00308           771.66083           747.18412          6585.81747          1347.46892          2143.06193          2945.15420          2307.12991          5550.48630          5946.04773           362.19457           601.55932           770.65803          1277.62595           693.00489          4254.81826          3930.98148          1403.44309           677.33305          1034.23917          2218.01344          3753.91054          2473.36871          2236.35640           955.00685          4540.22237          7336.93258           467.56907           698.14634          1603.67637          7406.91822          1951.01642          2818.94070          4670.14182           741.94229          2000.36796          4454.87606           548.72008          1422.73736          1022.82046          6078.37306           892.72251          1616.95420          3060.96741          5232.76864          5094.12540          6410.69640          4217.88738          4814.29014          1799.54735           879.66472          3581.25645         10620.25700           665.41520          2674.86998          2679.91870           284.05314          2486.95734          3564.02576          2805.07668           440.29736          4554.76513           805.85183          3297.60772          4196.23614          1881.19680           770.73015          3325.07821          3494.47965          5148.48776          6387.03310          5903.30974           650.89037           649.58448          1316.39233          4783.73154          1096.86506          2836.32321           927.45257           616.277