# vtk DataFile Version 3.0
Output from R2
ASCII
DATASET UNSTRUCTURED_GRID
POINTS       1414 double
     0.00000  2968.10000   0.
     1.54000  2966.60000   0.
     3.08000  2964.90000   0.
     4.61000  2964.10000   0.
     6.15000  2963.30000   0.
     7.69000  2962.60000   0.
     9.23000  2961.50000   0.
    10.76000  2960.70000   0.
    12.30000  2960.00000   0.
    13.84000  2959.30000   0.
    15.38000  2958.70000   0.
    16.91000  2958.10000   0.
    18.45000  2957.30000   0.
    19.99000  2956.60000   0.
    21.52000  2955.80000   0.
    23.06000  2955.00000   0.
    24.60000  2954.30000   0.
    26.14000  2953.50000   0.
    27.68000  2952.80000   0.
    29.21000  2951.90000   0.
    30.75000  2951.10000   0.
    32.29000  2950.20000   0.
    33.83000  2949.50000   0.
    35.36000  2948.70000   0.
    36.90000  2948.10000   0.
    38.44000  2947.30000   0.
    39.98000  2946.70000   0.
    41.51000  2946.10000   0.
    43.05000  2945.50000   0.
    44.59000  2945.10000   0.
    46.13000  2944.50000   0.
    47.66000  2944.10000   0.
    49.20000  2943.60000   0.
    50.74000  2943.40000   0.
    52.28000  2943.00000   0.
    53.81000  2942.50000   0.
    55.35000  2942.10000   0.
    56.89000  2941.60000   0.
    58.43000  2941.00000   0.
    59.96000  2940.60000   0.
    61.50000  2940.10000   0.
    63.04000  2939.50000   0.
    64.58000  2939.10000   0.
    66.11000  2939.20000   0.
    67.65000  2939.20000   0.
    69.19000  2939.10000   0.
    70.73000  2938.90000   0.
    72.26000  2938.60000   0.
    73.80000  2938.30000   0.
    75.34000  2938.50000   0.
    76.88000  2938.70000   0.
    78.41000  2938.60000   0.
    79.95000  2938.80000   0.
    81.49000  2938.90000   0.
    83.03000  2939.10000   0.
    84.56000  2939.10000   0.
     3.42000  2957.55000   0.
     8.97000  2954.51000   0.
    14.52000  2951.86000   0.
    20.07000  2949.38000   0.
    25.63000  2946.59000   0.
    31.18000  2943.67000   0.
    36.73000  2940.99000   0.
    42.28000  2938.62000   0.
    47.83000  2936.87000   0.
    53.39000  2935.46000   0.
    58.94000  2933.69000   0.
    64.49000  2931.95000   0.
    70.04000  2931.81000   0.
    75.60000  2931.36000   0.
    81.15000  2931.70000   0.
     0.51333  2967.60000   0.
     1.02667  2967.10000   0.
     2.05333  2966.03333   0.
     2.56667  2965.46667   0.
     3.59000  2964.63333   0.
     4.10000  2964.36667   0.
     5.12333  2963.83333   0.
     5.63667  2963.56667   0.
     6.66333  2963.06667   0.
     7.17667  2962.83333   0.
     8.20333  2962.23333   0.
     8.71667  2961.86667   0.
     9.74000  2961.23333   0.
    10.25000  2960.96667   0.
    11.27333  2960.46667   0.
    11.78667  2960.23333   0.
    12.81333  2959.76667   0.
    13.32667  2959.53333   0.
    14.35333  2959.10000   0.
    14.86667  2958.90000   0.
    15.89000  2958.50000   0.
    16.40000  2958.30000   0.
    17.42333  2957.83333   0.
    17.93667  2957.56667   0.
    18.96333  2957.06667   0.
    19.47667  2956.83333   0.
    20.50000  2956.33333   0.
    21.01000  2956.06667   0.
    22.03333  2955.53333   0.
    22.54667  2955.26667   0.
    23.57333  2954.76667   0.
    24.08667  2954.53333   0.
    25.11333  2954.03333   0.
    25.62667  2953.76667   0.
    26.65333  2953.26667   0.
    27.16667  2953.03333   0.
    28.19000  2952.50000   0.
    28.70000  2952.20000   0.
    29.72333  2951.63333   0.
    30.23667  2951.36667   0.
    31.26333  2950.80000   0.
    31.77667  2950.50000   0.
    32.80333  2949.96667   0.
    33.31667  2949.73333   0.
    34.34000  2949.23333   0.
    34.85000  2948.96667   0.
    35.87333  2948.50000   0.
    36.38667  2948.30000   0.
    37.41333  2947.83333   0.
    37.92667  2947.56667   0.
    38.95333  2947.10000   0.
    39.46667  2946.90000   0.
    40.49000  2946.50000   0.
    41.00000  2946.30000   0.
    42.02333  2945.90000   0.
    42.53667  2945.70000   0.
    43.56333  2945.36667   0.
    44.07667  2945.23333   0.
    45.10333  2944.90000   0.
    45.61667  2944.70000   0.
    46.64000  2944.36667   0.
    47.15000  2944.23333   0.
    48.17333  2943.93333   0.
    48.68667  2943.76667   0.
    49.71333  2943.53333   0.
    50.22667  2943.46667   0.
    51.25333  2943.26667   0.
    51.76667  2943.13333   0.
    52.79000  2942.83333   0.
    53.30000  2942.66667   0.
    54.32333  2942.36667   0.
    54.83667  2942.23333   0.
    55.86333  2941.93333   0.
    56.37667  2941.76667   0.
    57.40333  2941.40000   0.
    57.91667  2941.20000   0.
    58.94000  2940.86667   0.
    59.45000  2940.73333   0.
    60.47333  2940.43333   0.
    60.98667  2940.26667   0.
    62.01333  2939.90000   0.
    62.52667  2939.70000   0.
    63.55333  2939.36667   0.
    64.06667  2939.23333   0.
    65.34500  2939.15000   0.
    66.88000  2939.20000   0.
    68.42000  2939.15000   0.
    69.70333  2939.03333   0.
    70.21667  2938.96667   0.
    71.24000  2938.80000   0.
    71.75000  2938.70000   0.
    72.77333  2938.50000   0.
    73.28667  2938.40000   0.
    74.31333  2938.36667   0.
    74.82667  2938.43333   0.
    75.85333  2938.56667   0.
    76.36667  2938.63333   0.
    77.64500  2938.65000   0.
    78.92333  2938.66667   0.
    79.43667  2938.73333   0.
    80.72000  2938.85000   0.
    82.00333  2938.96667   0.
    82.51667  2939.03333   0.
    83.79500  2939.10000   0.
     0.08400  2959.57200   0.
     1.19600  2958.89800   0.
     2.30800  2958.22400   0.
     4.53000  2956.94200   0.
     5.64000  2956.33400   0.
     6.75000  2955.72600   0.
     7.86000  2955.11800   0.
    10.35750  2953.84750   0.
    11.74500  2953.18500   0.
    13.13250  2952.52250   0.
    15.90750  2951.24000   0.
    17.29500  2950.62000   0.
    18.68250  2950.00000   0.
    21.18200  2948.82200   0.
    22.29400  2948.26400   0.
    23.40600  2947.70600   0.
    24.51800  2947.14800   0.
    26.74000  2946.00600   0.
    27.85000  2945.42200   0.
    28.96000  2944.83800   0.
    30.07000  2944.25400   0.
    32.56750  2943.00000   0.
    33.95500  2942.33000   0.
    35.34250  2941.66000   0.
    38.11750  2940.39750   0.
    39.50500  2939.80500   0.
    40.89250  2939.21250   0.
    43.66750  2938.18250   0.
    45.05500  2937.74500   0.
    46.44250  2937.30750   0.
    49.22000  2936.51750   0.
    50.61000  2936.16500   0.
    52.00000  2935.81250   0.
    54.77750  2935.01750   0.
    56.16500  2934.57500   0.
    57.55250  2934.13250   0.
    60.32750  2933.25500   0.
    61.71500  2932.82000   0.
    63.10250  2932.38500   0.
    65.87750  2931.91500   0.
    67.26500  2931.88000   0.
    68.65250  2931.84500   0.
    71.43000  2931.69750   0.
    72.82000  2931.58500   0.
    74.21000  2931.47250   0.
    76.98750  2931.44500   0.
    78.37500  2931.53000   0.
    79.76250  2931.61500   0.
    82.53750  2931.75500   0.
    83.92500  2931.81000   0.
     6.60134  2937.05984   0.
    20.80435  2932.52560   0.
     3.78758  2946.36592   0.
    15.48523  2940.98228   0.
    29.30091  2934.50364   0.
    23.90594  2939.46561   0.
    40.87322  2931.62711   0.
     1.03219  2951.87344   0.
    10.83406  2946.32292   0.
    20.42668  2943.42459   0.
    48.80952  2930.83467   0.
    35.50309  2935.49258   0.
     7.54365  2949.73854   0.
    28.57967  2939.84283   0.
    15.90963  2945.83181   0.
    44.30452  2933.27820   0.
    -0.12722  2955.42655   0.
    24.47411  2943.04615   0.
     4.45051  2952.86019   0.
    40.01017  2935.22543   0.
    52.75593  2931.58993   0.
    13.75183  2934.27842   0.
    32.31862  2938.44653   0.
     0.40990  2931.04902   0.
    19.20708  2946.27332   0.
    57.19103  2930.55709   0.
    -0.97178  2947.27328   0.
    19.39705  2939.49643   0.
    11.08068  2950.12444   0.
    32.86215  2930.47012   0.
     7.41320  2941.82707   0.
    13.76382  2948.77946   0.
    27.17579  2942.79365   0.
     7.27112  2952.68663   0.
     2.71547  2954.94653   0.
    22.91159  2945.17994   0.
     2.00816  2941.86911   0.
    24.73355  2934.79062   0.
    47.86753  2934.00196   0.
    50.62083  2933.29089   0.
    60.15732  2930.28185   0.
    37.65425  2937.53830   0.
    44.64836  2929.77041   0.
    10.93416  2939.02064   0.
     4.26476  2949.76242   0.
    36.78915  2931.78219   0.
     7.36345  2946.13476   0.
    30.92470  2941.06806   0.
     6.19921  2931.10091   0.
    35.16618  2938.51604   0.
    16.36294  2929.87801   0.
    13.43632  2943.77014   0.
    42.64967  2935.50406   0.
    26.89596  2931.23775   0.
     1.59760  2936.73753   0.
    17.19200  2948.13905   0.
    -0.61497  2957.60981   0.
    26.49360  2937.36117   0.
     9.56799  2951.50953   0.
    17.55858  2943.77119   0.
    55.26825  2932.33039   0.
    22.03247  2936.46128   0.
    16.10828  2937.24515   0.
    22.48452  2941.40733   0.
    20.86327  2946.43955   0.
    29.71126  2937.35408   0.
    32.14062  2935.59882   0.
    45.26358  2935.44707   0.
    29.19256  2942.39482   0.
    25.22337  2944.48902   0.
    25.77440  2940.40763   0.
     5.12787  2951.33100   0.
     9.72036  2943.07255   0.
     0.63027  2944.64860   0.
     5.15669  2954.13690   0.
    33.80274  2940.56791   0.
     1.57076  2956.41210   0.
     9.31000  2947.97928   0.
     9.87726  2933.53233   0.
    53.60824  2932.85261   0.
    40.63972  2936.89193   0.
    13.47285  2946.23828   0.
    37.68088  2934.75035   0.
    46.32767  2931.88185   0.
    18.64740  2941.16071   0.
    13.09413  2950.32980   0.
    18.01744  2935.92389   0.
     0.55332  2948.73049   0.
     5.35766  2947.55011   0.
    42.44669  2933.52960   0.
    57.75733  2932.24094   0.
    23.68300  2931.83870   0.
    19.94397  2947.74183   0.
    61.81887  2931.15328   0.
[...]
POINT_DATA      1414
CELL_DATA      2568
SCALARS Resistivity(ohm.m) double 1
LOOKUP_TABLE default
          1126.57381          1676.27379          2404.97318          1079.44219           506.93872          2204.16010          1305.02922          1491.12970          1643.05842          2049.24700           780.11773          2035.16340           572.96592          2145.27873          2118.62041          1897.91108          1535.31329           470.86296           458.97461          2290.17948          1232.87983          1900.51303          1251.96697           617.51020          1769.18645           488.37212           271.71120          2139.95855          2114.30518          2358.86989           475.13167           500.59383          1604.56819           422.47524           372.52791          1650.44916           763.51171           919.05660          1210.80056          1522.43432          1786.91059           688.71975           436.32308          2186.39430           331.43321           438.52947          2817.70310           826.33978           599.27070           988.63908          2434.26297          1768.18767          1019.13347          1544.84419          2331.76972           873.46737           357.91035          2277.63844           446.41608          1085.84141           515.68977          1991.90599           464.27634          1848.49929           276.04827          1565.15535          2012.80994          1973.91511           294.47405           670.15168           476.72645           825.84973          1943.95797           391.47639           327.47686          2844.61967          1399.43587           466.69970           339.31319          2617.99624          2467.75240          1441.16828           424.83925           442.88944          1921.73741           734.89253           334.54180          2020.48792           918.56975          1839.29423          1024.60277           353.09698          2257.52819           369.29785          1757.39062          1890.52465           535.99375          1212.45068          2037.74496           969.45417          1506.92811           517.12385           597.17988           711.51493           997.04608          1659.77274           496.24724           941.59653          2173.35897          1291.90405           398.44657          1155.15929          2402.56033          1754.42481          1939.77220          1324.55129          1079.93423          1474.28568           427.54094           319.97390          2249.37416          1365.40353          2894.82855           698.44571           517.17987          1951.97682          2294.11834          3173.09159          1797.25973          1416.41758          1985.94326          1066.48433          1224.66000          2099.79881           810.90944          2749.69121           392.74818          1619.52742           968.56848          1374.62948          1547.66490           497.40242           578.95455          1342.93362          1595.04185           537.93371           448.39267          1436.90529          1832.98845           520.41867          2370.27322          1818.98502           915.44186           699.88980          2161.56732           298.64391          1600.40590           428.16781          2099.64818          1270.77491          1168.66660           493.38160          2240.30619           471.34990          2213.58066           525.62141          1427.49182          1806.77971          1867.26101          1655.14063           722.33241           746.54509           652.36989           280.67326           404.62010           957.25975           753.69127          3535.52101          2556.73571          1112.04578          2157.15630          1412.50907          1904.28998           694.27538           518.91945           921.29231           809.58205           605.68675           888.08349          2307.86670          1202.58020          2238.81592           551.47083          2470.92303           278.74196           478.42198          2401.34052          2020.29706          1207.63480           403.19021           297.66407           856.08103          1755.56047          1415.66212          1794.55355          1007.55920          3878.96086          2363.93719           381.07314          2292.81821          1291.90914           566.64988           409.76472           339.89433           573.87799          1163.46021          2188.72368           479.86352          1218.84194           495.13130           913.26619          1308.21662          1083.29120           350.73089           604.44633           595.32728           385.61134           509.75280          1312.70249           333.33719          1074.31066          2052.24736          1378.01257          2888.93652          2229.68190          1641.15040          2257.22991          1423.22099          1374.78980          1337.66895          2419.43183           625.57434           910.13167           394.94076          2277.87299           278.87769          1790.55233           477.57218           457.62646          2122.75677           271.36209          2037.90303          1693.72004           629.98497          1897.77824           948.13736           617.03261           665.19163           663.14570          2832.80068           544.54699          2215.12693           488.00961           414.83902           446.69779          1609.80860           359.49034          2290.29526           847.44602          2420.83855          1016.50957          2125.07915          2322.89617          2115.57377           460.03383          1564.94804          2273.37826           467.19588           712.16979           640.75206           477.23460          1375.89635           288.40378           904.61900           917.91015          2371.66191           447.10645          2280.59454           590.83421           463.34148           965.82837           317.38280          2139.27804           605.30396          1841.88041          2205.09216          1405.25322           505.63410           423.62235           595.68977          1053.16476           437.28814          2339.91781          2387.07372           427.29666          1751.90143          1295.38375          1481.84264          1867.70967           389.51534           633.36794           553.14958           296.05577          2259.55723           789.17566           344.28379           488.15046          1166.74045          2699.72230           463.48344          3237.46498           391.56493           925.53810           444.52491           506.41460          1183.06731           459.09603          1391.45478          1006.79523          2730.25044          1702.11994          2104.56005           476.63704          1548.45101           347.30593           389.53717           548.45519           565.61898          3102.28365           546.85705          2009.56575           425.84139          2034.32648           473.50969           540.01750          1725.55230          1180.09715          1062.05860           461.36707          2059.82604           460.13958          2288.07442           720.79986           386.60728           443.43456          1950.16164           478.09592          1547.66688           316.04239           373.95040           844.60890          1495.02835           894.53715           488.50855          1332.00542           466.42628           370.59991          2280.62884          1732.58812          2562.41939           468.49702          1297.10053          1376.53126          1038.05039           301.43525          2499.28703           400.06203           480.38473           447.21430          1898.97453          1332.91241           446.24513          1730.26311          2219.85444           279.11585          1332.56649           539.70072          1348.21855           427.27993          1484.46021           645.99868           332.72080          1409.27802          1363.37156           431.85800           812.39450           528.14541          1350.95153          1662.87361          1024.15842           533.88372           575.50361          1318.71143          1458.77646          1288.27680           814.89527           501.48940           887.59574          2219.61831          1602.80245          1473.02459          2028.28584          1025.77521           632.62323          1158.59653          2344.84492           675.30735           855.74086           673.26178          1703.82519           988.65343           370.57360          2057.97239          1402.35675          1261.66358           287.48269          1615.81606           538.62337          1372.38358           495.07689          1306.93693           484.74005           434.84440          1925.41848          1022.11888          1429.76214          1465.73340           619.96675          1810.18541          1306.01155          3542.73947           603.21554          1157.56647          2086.45326          1123.38696          1076.16043          1294.61242          1189.66655          4220.67158           793.20073          3262.05344          1524.43342          1487.19873          1228.39058          1671.38295           790.13106          2021.73253           861.48220          1349.72774           456.32949          1798.15794          1304.37869           821.70796          1329.89411          2139.40821           778.71338           872.34255          1197.10583          1694.38515          1617.79320           872.61306          1728.16818           851.65137           294.87538          1830.38215          3901.33571          1067.22493           427.23386          1496.54485           693.69461          1108.78230          1934.20377           479.62156           537.24811          2096.01963          2583.32828          1265.53459           370.54511           691.83633           745.85803          1260.86807          1153.21692          1032.03413          1505.24126           741.63465          1462.71485           713.20720          1043.44421          2453.97563          1714.40650           647.93962           337.13302           557.74737          1260.70833           727.51628          1208.70193          3649.02083          1241.16639           351.90506           459.54194          1272.16343          1188.36102           857.64165           386.54381          3122.11442          1414.19890           357.78688          3280.44828          2116.43307           447.79772          1371.41631          1229.79698          1048.20752          1197.28043          1054.59433           507.33183          1584.79373          1430.88092          1442.51143          1304.27528           646.80434          1727.20066           474.87981          1235.08030           535.55718           456.27741           670.16791          1666.73892          1091.71877           873.94976           470.21936           377.50657          1643.31577          1134.69314          3972.98507          4112.55300          3346.26420          2014.83398          1953.77308          2121.30275          3573.03404          5042.66582           632.76974          4579.28649           422.34190          1122.16827          1465.38326           645.39076          3792.40739          4965.77326          1285.92106           439.06698          2083.76627          2673.60177           831.78940           799.14474          1382.01693          4730.26532          1348.30275          2472.00174           980.92312           594.02721          1449.38675          1512.59671           425.46517          3406.71558           529.33585          1390.52728          5045.85563          4333.56114          1804.17907          4677.38485           309.56730           866.95571           497.41336          1919.33494          2608.82567          1793.92450          3020.77391          1831.59723          2594.76774           783.79380          1597.35545          1322.22283          1945.44053          8465.32204          3836.38165           986.67261          5141.95201          3744.20243           826.89879           676.90547          4986.83989          2756.53495          4833.58379          4667.69877          1419.76747           867.74112           654.84704           518.92758           814.08885          4371.66256          1686.75735          1037.41284          1563.83196           344.59779          1080.03913          1787.05459          3591.38049          1032.98473           888.98363           698.32224           798.64626          1598.55911          1453.03302           839.43115          3181.93072          2889.45865          3258.00375          3252.76678          6352.18137          4154.75059          2540.63795           571.54611          4589.57220          1270.65732          1601.29470           644.56204          1342.49955           909.52826           374.77877          5900.28709          5112.91406          1455.22272          1586.32137          2731.06810          2225.76222          3224.83958          3144.39550           923.42507          1304.56312           570.76960           770.95285           414.09557           531.13560           768.44209           612.01556          2050.52281          4474.04141          3418.16424          1473.48428          2235.27996          1419.62135          1634.71211          8046.20045          5194.82566          1927.07390           428.91004           585.15559          5133.84961           653.30792          3921.74510          4357.25759          1058.85393          2568.26931           708.23036           959.90006          1075.98572          2531.93965          2601.44342          2646.78507           640.55513           506.63209          1167.13106           380.22898           630.22841           422.41238          3645.93091          5206.44841           438.56431          2894.47722           802.71196          2609.38255          1281.04978           650.71245           614.28370           706.15502           632.06714          1965.19599           724.84952          1433.29693           665.88973          2595.04273          1775.71668          3861.07113          2852.52888           632.36099           561.00987           351.36421          3006.67139           753.27847           766.99774          1270.94822          2611.93576           674.27117           889.76010           547.41119          1259.60580          1007.38634          1666.13865          1378.38575           606.17049           793.48460           721.03645          2590.28935          2014.00787          1251.44391          7503.48591          1069.15333           846.10987           893.31792          1588.21433          2466.12629          1493.63832          1561.57027          1508.28320          2759.77819           678.48105          7416.80936          1386.25029          2640.06578           779.05558          1170.33862          4085.91481          2762.91033           810.28549          1092.05394          3374.61267           472.22554           537.86668          1233.82127          2922.82840          5479.81208          1573.12215          7190.33511          1327.57892          1699.58104          1463.78714          1240.81339           468.06224           803.27612          2727.04710           700.58249          4218.70875           637.17955          3272.10755           814.78556           670.35414          1457.72407          2168.15387          2878.09590          4657.01452          2686.67743          1577.94091          1828.06111          1338.32638          5950.53455          7368.10099          1940.75550          1040.84620          2743.32341           609.62319          1146.07506           891.07183          2685.83028          1168.05932          1058.19579           595.19097           610.59720          3713.16557          1022.28082           837.35191          5767.78688          3992.69302          2514.07494          1364.36162          7871.82379           840.20423          2446.07941          2907.04890          2283.15868          1127.49404          3027.95758          5227.77667          1715.61318           411.54959           737.04634           863.43778          1769.22303          1821.78871           659.94695           719.07636          6285.67730           789.46011          1155.58902          1962.95864          4291.17157          5072.21863           461.45513          1337.90512           852.91577          1077.36212          1850.20861           739.12319           812.98520          1614.68434           801.07959           606.88944           418.09858           754.05740          2886.55086           513.44218          2843.14603          1665.46291          2059.98504          1385.91477          1863.40980          1509.25002           426.60634          3744.44646          1544.43099          1885.79927          2050.95298          2218.25981          5330.57816           925.80852          5780.84131           594.27183           733.22984          1649.19528          1193.16173          7558.52501          2505.05043           854.18853          1726.45195          4057.76824          3328.12610           633.55684          4994.25461          1430.10735          2842.61024          1120.36017          3467.32678          3767.82322           506.02117          3453.28037          3673.36346          2479.82090          5382.79920           902.32149           746.33249          1185.44772          2495.89724           437.02255          9232.32315          3833.59379           656.74050          1747.86974          1657.89417          2142.35089           820.11578          1152.20019         12002.49378           664.70030          2421.76984          1282.71369           482.70402           838.77524          2507.32352          5374.84137          5815.33553          1558.19618          2649.48534          2606.31553          4667.57342           737.91944          1438.82620          2160.17196          1901.04547          5467.20373           590.69689          1176.28680          2833.49643           823.58472          4189.17334          2296.99644          7089.04531          2293.04712          1140.32568          1220.73708           617.33974          5022.29779          7470.00418          1913.95331           329.91223           399.70454           774.55872           775.45099          6454.47234          1454.01603          2198.38259          3112.03543          2368.81283          5652.96779          5691.97063           380.18711           636.59151           774.29134          1233.81572           691.58523          4324.67540          3846.54098          1354.29879           656.28077          1035.31534          2208.01180          3677.09610          2443.60015          2102.53330           873.06972          4468.20179          7478.55244           458.70198           687.83168          1693.09781          7725.88235          1800.31441          3019.82179          4748.74985           712.00390          1876.65703          4464.59991           542.20900          1429.06170          1023.77885          5716.12170           881.50309          1693.73124          2933.23984          5411.36437          4734.43413          6270.86400          4283.50224          4649.27359          1954.02539           872.51427          3709.86644         10231.45871           636.00513          2563.15242          2661.62822           298.84351          2552.04873          3277.63103          2722.82841           465.74870          4517.18261           786.81669          3426.80605          4172.35401          1910.69669           762.65783          3209.88047          3421.64940          5232.28311          6230.80293          5726.49413           653.65076           660.24723          1228.83549          4868.08619          1108.18612          2842.92126           846.91853           623.673