# vtk DataFile Version 3.0
Output from R2
ASCII
DATASET UNSTRUCTURED_GRID
POINTS       1414 double
     0.00000  2968.10000   0.
     1.54000  2966.60000   0.
     3.08000  2964.90000   0.
     4.61000  2964.10000   0.
     6.15000  2963.30000   0.
     7.69000  2962.60000   0.
     9.23000  2961.50000   0.
    10.76000  2960.70000   0.
    12.30000  2960.00000   0.
    13.84000  2959.30000   0.
    15.38000  2958.70000   0.
    16.91000  2958.10000   0.
    18.45000  2957.30000   0.
    19.99000  2956.60000   0.
    21.52000  2955.80000   0.
    23.06000  2955.00000   0.
    24.60000  2954.30000   0.
    26.14000  2953.50000   0.
    27.68000  2952.80000   0.
    29.21000  2951.90000   0.
    30.75000  2951.10000   0.
    32.29000  2950.20000   0.
    33.83000  2949.50000   0.
    35.36000  2948.70000   0.
    36.90000  2948.10000   0.
    38.44000  2947.30000   0.
    39.98000  2946.70000   0.
    41.51000  2946.10000   0.
    43.05000  2945.50000   0.
    44.59000  2945.10000   0.
    46.13000  2944.50000   0.
    47.66000  2944.10000   0.
    49.20000  2943.60000   0.
    50.74000  2943.40000   0.
    52.28000  2943.00000   0.
    53.81000  2942.50000   0.
    55.35000  2942.10000   0.
    56.89000  2941.60000   0.
    58.43000  2941.00000   0.
    59.96000  2940.60000   0.
    61.50000  2940.10000   0.
    63.04000  2939.50000   0.
    64.58000  2939.10000   0.
    66.11000  2939.20000   0.
    67.65000  2939.20000   0.
    69.19000  2939.10000   0.
    70.73000  2938.90000   0.
    72.26000  2938.60000   0.
    73.80000  2938.30000   0.
    75.34000  2938.50000   0.
    76.88000  2938.70000   0.
    78.41000  2938.60000   0.
    79.95000  2938.80000   0.
    81.49000  2938.90000   0.
    83.03000  2939.10000   0.
    84.56000  2939.10000   0.
     3.42000  2957.55000   0.
     8.97000  2954.51000   0.
    14.52000  2951.86000   0.
    20.07000  2949.38000   0.
    25.63000  2946.59000   0.
    31.18000  2943.67000   0.
    36.73000  2940.99000   0.
    42.28000  2938.62000   0.
    47.83000  2936.87000   0.
    53.39000  2935.46000   0.
    58.94000  2933.69000   0.
    64.49000  2931.95000   0.
    70.04000  2931.81000   0.
    75.60000  2931.36000   0.
    81.15000  2931.70000   0.
     0.51333  2967.60000   0.
     1.02667  2967.10000   0.
     2.05333  2966.03333   0.
     2.56667  2965.46667   0.
     3.59000  2964.63333   0.
     4.10000  2964.36667   0.
     5.12333  2963.83333   0.
     5.63667  2963.56667   0.
     6.66333  2963.06667   0.
     7.17667  2962.83333   0.
     8.20333  2962.23333   0.
     8.71667  2961.86667   0.
     9.74000  2961.23333   0.
    10.25000  2960.96667   0.
    11.27333  2960.46667   0.
    11.78667  2960.23333   0.
    12.81333  2959.76667   0.
    13.32667  2959.53333   0.
    14.35333  2959.10000   0.
    14.86667  2958.90000   0.
    15.89000  2958.50000   0.
    16.40000  2958.30000   0.
    17.42333  2957.83333   0.
    17.93667  2957.56667   0.
    18.96333  2957.06667   0.
    19.47667  2956.83333   0.
    20.50000  2956.33333   0.
    21.01000  2956.06667   0.
    22.03333  2955.53333   0.
    22.54667  2955.26667   0.
    23.57333  2954.76667   0.
    24.08667  2954.53333   0.
    25.11333  2954.03333   0.
    25.62667  2953.76667   0.
    26.65333  2953.26667   0.
    27.16667  2953.03333   0.
    28.19000  2952.50000   0.
    28.70000  2952.20000   0.
    29.72333  2951.63333   0.
    30.23667  2951.36667   0.
    31.26333  2950.80000   0.
    31.77667  2950.50000   0.
    32.80333  2949.96667   0.
    33.31667  2949.73333   0.
    34.34000  2949.23333   0.
    34.85000  2948.96667   0.
    35.87333  2948.50000   0.
    36.38667  2948.30000   0.
    37.41333  2947.83333   0.
    37.92667  2947.56667   0.
    38.95333  2947.10000   0.
    39.46667  2946.90000   0.
    40.49000  2946.50000   0.
    41.00000  2946.30000   0.
    42.02333  2945.90000   0.
    42.53667  2945.70000   0.
    43.56333  2945.36667   0.
    44.07667  2945.23333   0.
    45.10333  2944.90000   0.
    45.61667  2944.70000   0.
    46.64000  2944.36667   0.
    47.15000  2944.23333   0.
    48.17333  2943.93333   0.
    48.68667  2943.76667   0.
    49.71333  2943.53333   0.
    50.22667  2943.46667   0.
    51.25333  2943.26667   0.
    51.76667  2943.13333   0.
    52.79000  2942.83333   0.
    53.30000  2942.66667   0.
    54.32333  2942.36667   0.
    54.83667  2942.23333   0.
    55.86333  2941.93333   0.
    56.37667  2941.76667   0.
    57.40333  2941.40000   0.
    57.91667  2941.20000   0.
    58.94000  2940.86667   0.
    59.45000  2940.73333   0.
    60.47333  2940.43333   0.
    60.98667  2940.26667   0.
    62.01333  2939.90000   0.
    62.52667  2939.70000   0.
    63.55333  2939.36667   0.
    64.06667  2939.23333   0.
    65.34500  2939.15000   0.
    66.88000  2939.20000   0.
    68.42000  2939.15000   0.
    69.70333  2939.03333   0.
    70.21667  2938.96667   0.
    71.24000  2938.80000   0.
    71.75000  2938.70000   0.
    72.77333  2938.50000   0.
    73.28667  2938.40000   0.
    74.31333  2938.36667   0.
    74.82667  2938.43333   0.
    75.85333  2938.56667   0.
    76.36667  2938.63333   0.
    77.64500  2938.65000   0.
    78.92333  2938.66667   0.
    79.43667  2938.73333   0.
    80.72000  2938.85000   0.
    82.00333  2938.96667   0.
    82.51667  2939.03333   0.
    83.79500  2939.10000   0.
     0.08400  2959.57200   0.
     1.19600  2958.89800   0.
     2.30800  2958.22400   0.
     4.53000  2956.94200   0.
     5.64000  2956.33400   0.
     6.75000  2955.72600   0.
     7.86000  2955.11800   0.
    10.35750  2953.84750   0.
    11.74500  2953.18500   0.
    13.13250  2952.52250   0.
    15.90750  2951.24000   0.
    17.29500  2950.62000   0.
    18.68250  2950.00000   0.
    21.18200  2948.82200   0.
    22.29400  2948.26400   0.
    23.40600  2947.70600   0.
    24.51800  2947.14800   0.
    26.74000  2946.00600   0.
    27.85000  2945.42200   0.
    28.96000  2944.83800   0.
    30.07000  2944.25400   0.
    32.56750  2943.00000   0.
    33.95500  2942.33000   0.
    35.34250  2941.66000   0.
    38.11750  2940.39750   0.
    39.50500  2939.80500   0.
    40.89250  2939.21250   0.
    43.66750  2938.18250   0.
    45.05500  2937.74500   0.
    46.44250  2937.30750   0.
    49.22000  2936.51750   0.
    50.61000  2936.16500   0.
    52.00000  2935.81250   0.
    54.77750  2935.01750   0.
    56.16500  2934.57500   0.
    57.55250  2934.13250   0.
    60.32750  2933.25500   0.
    61.71500  2932.82000   0.
    63.10250  2932.38500   0.
    65.87750  2931.91500   0.
    67.26500  2931.88000   0.
    68.65250  2931.84500   0.
    71.43000  2931.69750   0.
    72.82000  2931.58500   0.
    74.21000  2931.47250   0.
    76.98750  2931.44500   0.
    78.37500  2931.53000   0.
    79.76250  2931.61500   0.
    82.53750  2931.75500   0.
    83.92500  2931.81000   0.
     6.60134  2937.05984   0.
    20.80435  2932.52560   0.
     3.78758  2946.36592   0.
    15.48523  2940.98228   0.
    29.30091  2934.50364   0.
    23.90594  2939.46561   0.
    40.87322  2931.62711   0.
     1.03219  2951.87344   0.
    10.83406  2946.32292   0.
    20.42668  2943.42459   0.
    48.80952  2930.83467   0.
    35.50309  2935.49258   0.
     7.54365  2949.73854   0.
    28.57967  2939.84283   0.
    15.90963  2945.83181   0.
    44.30452  2933.27820   0.
    -0.12722  2955.42655   0.
    24.47411  2943.04615   0.
     4.45051  2952.86019   0.
    40.01017  2935.22543   0.
    52.75593  2931.58993   0.
    13.75183  2934.27842   0.
    32.31862  2938.44653   0.
     0.40990  2931.04902   0.
    19.20708  2946.27332   0.
    57.19103  2930.55709   0.
    -0.97178  2947.27328   0.
    19.39705  2939.49643   0.
    11.08068  2950.12444   0.
    32.86215  2930.47012   0.
     7.41320  2941.82707   0.
    13.76382  2948.77946   0.
    27.17579  2942.79365   0.
     7.27112  2952.68663   0.
     2.71547  2954.94653   0.
    22.91159  2945.17994   0.
     2.00816  2941.86911   0.
    24.73355  2934.79062   0.
    47.86753  2934.00196   0.
    50.62083  2933.29089   0.
    60.15732  2930.28185   0.
    37.65425  2937.53830   0.
    44.64836  2929.77041   0.
    10.93416  2939.02064   0.
     4.26476  2949.76242   0.
    36.78915  2931.78219   0.
     7.36345  2946.13476   0.
    30.92470  2941.06806   0.
     6.19921  2931.10091   0.
    35.16618  2938.51604   0.
    16.36294  2929.87801   0.
    13.43632  2943.77014   0.
    42.64967  2935.50406   0.
    26.89596  2931.23775   0.
     1.59760  2936.73753   0.
    17.19200  2948.13905   0.
    -0.61497  2957.60981   0.
    26.49360  2937.36117   0.
     9.56799  2951.50953   0.
    17.55858  2943.77119   0.
    55.26825  2932.33039   0.
    22.03247  2936.46128   0.
    16.10828  2937.24515   0.
    22.48452  2941.40733   0.
    20.86327  2946.43955   0.
    29.71126  2937.35408   0.
    32.14062  2935.59882   0.
    45.26358  2935.44707   0.
    29.19256  2942.39482   0.
    25.22337  2944.48902   0.
    25.77440  2940.40763   0.
     5.12787  2951.33100   0.
     9.72036  2943.07255   0.
     0.63027  2944.64860   0.
     5.15669  2954.13690   0.
    33.80274  2940.56791   0.
     1.57076  2956.41210   0.
     9.31000  2947.97928   0.
     9.87726  2933.53233   0.
    53.60824  2932.85261   0.
    40.63972  2936.89193   0.
    13.47285  2946.23828   0.
    37.68088  2934.75035   0.
    46.32767  2931.88185   0.
    18.64740  2941.16071   0.
    13.09413  2950.32980   0.
    18.01744  2935.92389   0.
     0.55332  2948.73049   0.
     5.35766  2947.55011   0.
    42.44669  2933.52960   0.
    57.75733  2932.24094   0.
    23.68300  2931.83870   0.
    19.94397  2947.74183   0.
    61.81887  2931.15328   0.
[...]
POINT_DATA      1414
CELL_DATA      2568
SCALARS Resistivity(ohm.m) double 1
LOOKUP_TABLE default
          1176.43863          1862.01040          2268.89361          1128.98925           532.83100          2343.26174          1349.03425          1489.57614          1724.24366          2079.66308           726.96358          1999.15073           575.88427          2361.81465          2299.45946          1830.19390          1682.56153           476.64478           461.69820          2564.86525          1267.18006          1890.28405          1341.00612           597.97093          1980.85675           470.16845           264.71256          2329.03228          2174.80495          2226.82917           486.19896           476.61061          1776.84305           401.09363           374.15653          1670.64198           682.99768           935.92414          1291.43583          1592.04492          1875.12623           641.14520           431.84682          2270.19009           314.75413           413.42540          2799.06461           780.44607           586.10901           927.52677          2685.09241          1956.22910           975.95352          1676.13053          2086.53447           899.41756           350.41402          2245.72313           424.42412          1059.38167           544.92995          2222.47467           475.57845          1817.29618           262.28601          1637.00101          2263.85659          2074.19161           281.61708           707.99584           454.81904           739.43547          2101.24923           386.76596           340.48837          2684.35939          1487.30242           473.71427           364.78431          2703.93314          2665.83984          1426.02082           398.18837           417.20053          2149.61313           779.18574           322.73891          2095.25781           839.39684          1973.75833          1047.06375           336.34773          2305.34648           390.74353          1761.14326          2081.78428           585.31009          1210.52301          2229.16993           994.72445          1636.29996           543.60076           622.56898           669.43892          1031.59915          1772.61111           519.49006           900.57435          1996.85787          1301.18003           414.14090          1125.44350          2392.82215          1868.49565          2058.75528          1385.13599          1029.45873          1611.42298           419.21961           309.61733          2478.00174          1461.57841          2790.77428           702.83470           553.09134          2208.95636          2314.21674          2962.61685          1831.80611          1442.50226          2172.61514          1122.79000          1300.15167          2359.10617           782.87436          2594.94226           412.76147          1756.85391          1005.25244          1439.95364          1703.56939           520.92813           605.54363          1363.26538          1763.18601           563.34155           444.18724          1560.60910          2068.20655           506.65831          2178.69831          1997.98685           890.77151           636.54793          2461.87650           308.42558          1578.51327           412.51524          2200.49186          1354.33487          1146.02716           513.34892          2241.89666           473.29119          2217.64283           555.09773          1486.23719          1752.81809          1953.81783          1834.76296           660.07676           731.55482           675.74049           270.85346           379.86652           876.81008           795.50835          3163.31947          2465.82824          1116.92762          2422.51942          1389.18881          2117.71560           710.55727           545.60065           961.28562           853.21458           634.23507           808.36837          2441.61998          1278.30759          2435.32794           571.77857          2597.45340           264.76895           483.52026          2590.63705          2145.29981          1269.16090           387.14070           310.84029           769.98041          1827.30001          1534.40264          1741.86891          1051.22474          3431.44512          2121.40652           361.33251          2148.63903          1389.21861           590.39248           391.68911           334.38014           558.26673          1223.20037          2313.38044           454.23695          1270.25654           510.89985           828.99666          1335.27253          1097.92812           350.29128           612.27192           622.77182           418.61920           521.44396          1362.21837           302.91039          1005.53022          1920.55498          1486.86304          2674.58281          2539.67028          1631.45703          2559.74160          1410.57250          1410.47797          1441.95449          2515.48121           612.26131           956.82557           387.33636          2505.36503           281.45299          1965.36554           489.06242           476.51953          2145.18607           271.95983          1926.47319          1709.29186           661.37502          2137.04469           937.83531           595.30474           698.14277           662.91595          2626.26371           566.16400          2174.06683           515.11648           407.33654           432.22990          1627.43619           355.04470          2325.38650           895.38564          2160.64568           942.18222          2010.85688          2304.61280          2363.63951           433.29026          1712.51352          2094.68998           441.15089           642.93305           602.86944           454.22542          1468.47108           286.90951           904.09707           853.50362          2314.04368           443.97555          2584.27443           593.41076           506.09319           885.44336           320.44065          2424.38474           634.32287          2076.20015          2433.03141          1465.94721           526.01774           419.44361           623.26090          1007.78443           426.72167          2632.15820          2426.24958           417.72313          1897.88101          1389.15541          1623.99673          1987.73475           419.32955           666.23348           565.73644           278.74848          2384.66834           717.48703           347.17008           503.45708          1111.73438          2533.85870           438.86718          2936.47444           356.08645           927.68753           488.59799           521.16267          1258.55621           455.15151          1472.86359          1058.79561          2652.00350          1875.58842          2269.29198           480.81916          1581.40392           316.16152           362.00079           569.32234           584.19073          2857.70172           532.19386          2284.59971           448.89802          2239.54832           481.10187           564.93246          1892.78830          1190.20725          1133.48887           450.99826          2327.91958           485.27213          2389.23510           756.83290           396.27420           438.75261          2214.60874           492.14695          1610.39401           295.78817           356.17510           763.32800          1600.74042           842.61601           495.79094          1431.44825           470.31902           376.42988          2448.40039          1771.28921          2450.97799           451.46176          1377.82545          1493.60088           968.67293           278.58563          2520.29303           367.78771           451.76165           445.52237          2146.37440          1439.82310           465.01713          1846.92249          2498.21000           285.93724          1423.69985           562.65224          1334.12832           415.62348          1502.70614           681.11393           307.17138          1513.14067          1439.13258           466.78434           745.53607           542.87496          1331.38885          1825.98217           967.89248           559.05546           599.10031          1408.42382          1517.14898          1365.29038           839.63615           486.66813           923.37408          2385.59374          1709.74314          1545.30393          2288.90603           958.57311           611.48547          1152.69455          2647.32116           620.42809           836.38347           650.06834          1768.43191           924.70676           346.38488          2344.22969          1421.77623          1313.49668           269.17628          1598.57443           559.22259          1484.61867           513.51223          1374.57055           502.33481           462.62712          1853.34885          1018.66403          1558.38831          1556.98753           599.44849          1959.95805          1295.72674          3183.96987           586.02212          1224.37293          1955.96978          1189.43184          1067.23477          1361.06650          1263.54932          3738.04317           825.40807          2988.44930          1635.27886          1466.50543          1200.52433          1640.62873           792.00511          2174.09496           901.85407          1354.25452           455.07872          2015.62224          1398.76457           860.82302          1297.55589          2223.03960           794.19197           800.30504          1148.14188          1677.39620          1697.19063           788.77686          1932.42087           845.07980           275.10352          2034.92442          3456.17124          1008.26830           395.58700          1498.78552           680.64038          1090.69843          1845.56554           486.54086           568.36315          2175.22744          2723.17497          1226.95593           381.96945           630.38871           742.75494          1348.64151          1103.96842          1088.16206          1590.40304           773.56767          1539.38092           739.65176          1054.45110          2376.22441          1915.59848           612.52544           346.41296           570.46051          1296.70528           747.19452          1237.28578          3254.98131          1313.82973           328.34113           461.14290          1241.69990          1228.37980           837.35152           373.42595          2842.38632          1467.89080           338.14164          2958.17636          2413.06818           433.70455          1444.12562          1308.19739          1089.73756          1162.21478          1085.38284           518.04223          1587.75164          1516.79961          1541.44752          1272.63877           676.65577          1718.51068           473.19894          1195.41515           551.72515           448.27294           697.20167          1792.74461          1119.98010           919.35073           462.40491           364.74685          1794.75272          1174.20810          4129.50426          4235.35040          3404.60247          2049.55326          2003.70427          2113.58493          3615.91243          4935.17557           632.59018          4494.42146           441.73696          1075.35984          1392.54436           654.33680          3828.92966          5074.17929          1268.93437           454.91949          1980.37282          2707.71810           767.71186           871.19199          1527.73945          4213.46120          1410.41074          2535.48559           954.38065           607.57833          1314.10765          1573.65212           446.23017          3220.74806           521.03474          1346.63369          5188.67525          3956.06888          1732.34996          4926.32281           324.18969           802.75916           486.36444          1849.00261          2780.15789          1996.34110          3180.87866          1770.21927          2686.87262           738.21175          1529.82631          1438.46470          1803.52258          8217.44786          3648.75233           933.54786          4538.86343          3961.40404           864.55411           670.77246          5117.78233          2809.23482          4349.72881          4951.30493          1441.71239           814.26941           618.11957           512.76388           779.29408          4420.62868          1856.95263           988.59989          1680.74844           369.74443          1146.33300          1823.97374          3603.77202          1069.54676           891.43070           656.57504           855.57301          1540.65079          1429.31580           881.47680          3181.91443          2815.87202          3095.58546          3256.83638          5765.76667          4335.60738          2731.39983           567.66196          4866.27688          1294.78297          1815.77343           620.80715          1448.46371           883.46302           368.43005          6302.22889          4933.17472          1647.07439          1547.40909          2800.20913          2296.41663          3468.83718          2946.02626           867.72265          1298.98862           614.71333           800.03303           402.41753           526.16383           770.09468           628.61881          1961.19676          4443.79122          3593.87820          1670.06118          2277.20292          1412.01314          1569.35645          7949.42674          4659.65481          1980.03269           414.47106           569.56454          5179.89853           692.47487          4268.24927          4576.53387          1098.31391          2332.26513           717.81116           880.80346          1108.66503          2333.66760          2451.87679          2757.13263           644.69248           503.31157          1321.87641           387.98886           570.27215           448.43061          3464.62321          5147.72990           449.14899          2976.60151           861.51486          2677.26916          1367.77863           658.31342           683.08696           707.61950           635.02880          1911.32199           803.57332          1439.04875           735.98546          2555.72831          1815.02568          4014.86771          2639.07084           695.58186           594.94990           366.06237          2978.93194           718.94699           765.07843          1322.25007          2770.15787           687.39799           807.96631           503.02858          1326.72139          1061.76742          1600.32866          1531.43386           623.84013           820.97462           672.93866          2752.64195          2100.22973          1207.04582          7803.98693          1077.28142           919.22361           891.81088          1642.05069          2581.29632          1610.29259          1538.73230          1575.27133          2682.86833           680.89453          8114.14776          1578.53492          2778.69747           859.21631          1334.87176          4299.51242          2794.98704           816.50782          1144.04781          3290.99234           465.72178           539.23402          1252.95881          2709.33643          5802.18068          1503.50170          6808.92620          1284.21154          1795.92163          1654.55715          1337.99999           421.98141           779.23632          2719.92877           642.31641          4076.18895           638.23215          3485.14567           819.90829           703.45812          1456.31859          2101.99343          2843.56422          4826.03511          2790.33285          1609.94443          1874.72778          1246.90363          5454.45036          7168.72730          1910.48763          1050.41867          2879.49813           628.32030          1265.91576           816.84511          2889.99054          1299.46438          1009.78486           588.43862           617.30205          3845.41454          1000.27619           760.19654          5986.85152          4139.41499          2345.62687          1317.65005          8008.89745           764.46925          2462.67881          3045.32500          2368.59383          1132.85633          2939.89113          5265.66588          1773.29533           439.47762           688.36366           838.96412          1841.68496          1904.69754           660.45658           722.09285          6532.71764           807.48358          1167.57078          1899.58782          3996.75545          5237.85478           458.98156          1330.42070           828.66848          1046.85498          1926.74052           702.26662           819.42935          1406.72338           781.99061           605.59842           412.16195           741.37786          2904.07995           498.05577          2879.01167          1704.80361          2059.57539          1386.73243          1777.43496          1660.90236           418.66475          4114.89743          1521.95656          1877.73353          2052.69562          2335.49965          5481.91335           916.28046          5144.45962           585.89099           679.32107          1670.26584          1315.38489          7320.51064          2736.91989           930.28010          1629.53255          4252.83572          3328.62366           619.26523          5156.41034          1469.46491          2843.93718          1057.72743          3481.28028          3740.57906           506.42219          3381.19153          3793.67082          2608.60938          5458.09086           824.92971           718.28958          1296.73836          2317.34513           443.60855          9481.25767          3989.00837           641.15986          1653.98453          1698.00691          2247.34849           771.85820          1286.95116         13338.02760           651.90226          2280.47062          1283.19793           468.20362           841.17190          2715.07303          5583.24313          6042.97073          1680.64105          2434.41800          2543.74306          4132.79392           724.66330          1387.07756          2309.70748          1764.84322          5567.69941           628.54021          1301.48715          2965.45241           783.12183          4018.19536          2246.40452          6589.48769          2536.34303          1332.28365          1144.79839           611.24900          5221.88677          7076.16977          2011.20593           321.83583           386.19036           803.58828           800.37180          5987.38826          1483.31278          2161.21975          3103.96384          2346.52226          5498.55236          5486.73205           344.12739           620.83371           739.18896          1296.19275           637.79736          4272.41597          3930.37670          1396.12619           681.81614          1083.66578          2198.33450          3766.89052          2286.27193          2247.97820           859.89800          4175.70735          7546.63943           444.56360           659.91414          1741.64148          7779.48629          1918.55424          2840.19275          4864.11014           723.12245          1836.77644          4373.77924           532.20854          1577.80176           966.40712          5466.56639           907.66360          1751.53083          3017.17217          5445.90894          5067.79526          5687.73289          4542.24147          4397.60504          1813.11357           898.88948          3518.95130         10434.89493           640.10695          2776.95515          2555.54397           298.60200          2663.70646          3471.38335          2741.27427           442.27335          4473.97681           760.67395          3345.23542          4367.50319          1859.77440           739.87836          3287.31608          3488.56526          5517.81546          5809.72918          5096.53058           645.63804           671.37136          1328.38308          4888.50305          1097.72222          2809.78162           844.14321           612.318