# vtk DataFile Version 3.0
Output from R2
ASCII
DATASET UNSTRUCTURED_GRID
POINTS       1414 double
     0.00000  2968.10000   0.
     1.54000  2966.60000   0.
     3.08000  2964.90000   0.
     4.61000  2964.10000   0.
     6.15000  2963.30000   0.
     7.69000  2962.60000   0.
     9.23000  2961.50000   0.
    10.76000  2960.70000   0.
    12.30000  2960.00000   0.
    13.84000  2959.30000   0.
    15.38000  2958.70000   0.
    16.91000  2958.10000   0.
    18.45000  2957.30000   0.
    19.99000  2956.60000   0.
    21.52000  2955.80000   0.
    23.06000  2955.00000   0.
    24.60000  2954.30000   0.
    26.14000  2953.50000   0.
    27.68000  2952.80000   0.
    29.21000  2951.90000   0.
    30.75000  2951.10000   0.
    32.29000  2950.20000   0.
    33.83000  2949.50000   0.
    35.36000  2948.70000   0.
    36.90000  2948.10000   0.
    38.44000  2947.30000   0.
    39.98000  2946.70000   0.
    41.51000  2946.10000   0.
    43.05000  2945.50000   0.
    44.59000  2945.10000   0.
    46.13000  2944.50000   0.
    47.66000  2944.10000   0.
    49.20000  2943.60000   0.
    50.74000  2943.40000   0.
    52.28000  2943.00000   0.
    53.81000  2942.50000   0.
    55.35000  2942.10000   0.
    56.89000  2941.60000   0.
    58.43000  2941.00000   0.
    59.96000  2940.60000   0.
    61.50000  2940.10000   0.
    63.04000  2939.50000   0.
    64.58000  2939.10000   0.
    66.11000  2939.20000   0.
    67.65000  2939.20000   0.
    69.19000  2939.10000   0.
    70.73000  2938.90000   0.
    72.26000  2938.60000   0.
    73.80000  2938.30000   0.
    75.34000  2938.50000   0.
    76.88000  2938.70000   0.
    78.41000  2938.60000   0.
    79.95000  2938.80000   0.
    81.49000  2938.90000   0.
    83.03000  2939.10000   0.
    84.56000  2939.10000   0.
     3.42000  2957.55000   0.
     8.97000  2954.51000   0.
    14.52000  2951.86000   0.
    20.07000  2949.38000   0.
    25.63000  2946.59000   0.
    31.18000  2943.67000   0.
    36.73000  2940.99000   0.
    42.28000  2938.62000   0.
    47.83000  2936.87000   0.
    53.39000  2935.46000   0.
    58.94000  2933.69000   0.
    64.49000  2931.95000   0.
    70.04000  2931.81000   0.
    75.60000  2931.36000   0.
    81.15000  2931.70000   0.
     0.51333  2967.60000   0.
     1.02667  2967.10000   0.
     2.05333  2966.03333   0.
     2.56667  2965.46667   0.
     3.59000  2964.63333   0.
     4.10000  2964.36667   0.
     5.12333  2963.83333   0.
     5.63667  2963.56667   0.
     6.66333  2963.06667   0.
     7.17667  2962.83333   0.
     8.20333  2962.23333   0.
     8.71667  2961.86667   0.
     9.74000  2961.23333   0.
    10.25000  2960.96667   0.
    11.27333  2960.46667   0.
    11.78667  2960.23333   0.
    12.81333  2959.76667   0.
    13.32667  2959.53333   0.
    14.35333  2959.10000   0.
    14.86667  2958.90000   0.
    15.89000  2958.50000   0.
    16.40000  2958.30000   0.
    17.42333  2957.83333   0.
    17.93667  2957.56667   0.
    18.96333  2957.06667   0.
    19.47667  2956.83333   0.
    20.50000  2956.33333   0.
    21.01000  2956.06667   0.
    22.03333  2955.53333   0.
    22.54667  2955.26667   0.
    23.57333  2954.76667   0.
    24.08667  2954.53333   0.
    25.11333  2954.03333   0.
    25.62667  2953.76667   0.
    26.65333  2953.26667   0.
    27.16667  2953.03333   0.
    28.19000  2952.50000   0.
    28.70000  2952.20000   0.
    29.72333  2951.63333   0.
    30.23667  2951.36667   0.
    31.26333  2950.80000   0.
    31.77667  2950.50000   0.
    32.80333  2949.96667   0.
    33.31667  2949.73333   0.
    34.34000  2949.23333   0.
    34.85000  2948.96667   0.
    35.87333  2948.50000   0.
    36.38667  2948.30000   0.
    37.41333  2947.83333   0.
    37.92667  2947.56667   0.
    38.95333  2947.10000   0.
    39.46667  2946.90000   0.
    40.49000  2946.50000   0.
    41.00000  2946.30000   0.
    42.02333  2945.90000   0.
    42.53667  2945.70000   0.
    43.56333  2945.36667   0.
    44.07667  2945.23333   0.
    45.10333  2944.90000   0.
    45.61667  2944.70000   0.
    46.64000  2944.36667   0.
    47.15000  2944.23333   0.
    48.17333  2943.93333   0.
    48.68667  2943.76667   0.
    49.71333  2943.53333   0.
    50.22667  2943.46667   0.
    51.25333  2943.26667   0.
    51.76667  2943.13333   0.
    52.79000  2942.83333   0.
    53.30000  2942.66667   0.
    54.32333  2942.36667   0.
    54.83667  2942.23333   0.
    55.86333  2941.93333   0.
    56.37667  2941.76667   0.
    57.40333  2941.40000   0.
    57.91667  2941.20000   0.
    58.94000  2940.86667   0.
    59.45000  2940.73333   0.
    60.47333  2940.43333   0.
    60.98667  2940.26667   0.
    62.01333  2939.90000   0.
    62.52667  2939.70000   0.
    63.55333  2939.36667   0.
    64.06667  2939.23333   0.
    65.34500  2939.15000   0.
    66.88000  2939.20000   0.
    68.42000  2939.15000   0.
    69.70333  2939.03333   0.
    70.21667  2938.96667   0.
    71.24000  2938.80000   0.
    71.75000  2938.70000   0.
    72.77333  2938.50000   0.
    73.28667  2938.40000   0.
    74.31333  2938.36667   0.
    74.82667  2938.43333   0.
    75.85333  2938.56667   0.
    76.36667  2938.63333   0.
    77.64500  2938.65000   0.
    78.92333  2938.66667   0.
    79.43667  2938.73333   0.
    80.72000  2938.85000   0.
    82.00333  2938.96667   0.
    82.51667  2939.03333   0.
    83.79500  2939.10000   0.
     0.08400  2959.57200   0.
     1.19600  2958.89800   0.
     2.30800  2958.22400   0.
     4.53000  2956.94200   0.
     5.64000  2956.33400   0.
     6.75000  2955.72600   0.
     7.86000  2955.11800   0.
    10.35750  2953.84750   0.
    11.74500  2953.18500   0.
    13.13250  2952.52250   0.
    15.90750  2951.24000   0.
    17.29500  2950.62000   0.
    18.68250  2950.00000   0.
    21.18200  2948.82200   0.
    22.29400  2948.26400   0.
    23.40600  2947.70600   0.
    24.51800  2947.14800   0.
    26.74000  2946.00600   0.
    27.85000  2945.42200   0.
    28.96000  2944.83800   0.
    30.07000  2944.25400   0.
    32.56750  2943.00000   0.
    33.95500  2942.33000   0.
    35.34250  2941.66000   0.
    38.11750  2940.39750   0.
    39.50500  2939.80500   0.
    40.89250  2939.21250   0.
    43.66750  2938.18250   0.
    45.05500  2937.74500   0.
    46.44250  2937.30750   0.
    49.22000  2936.51750   0.
    50.61000  2936.16500   0.
    52.00000  2935.81250   0.
    54.77750  2935.01750   0.
    56.16500  2934.57500   0.
    57.55250  2934.13250   0.
    60.32750  2933.25500   0.
    61.71500  2932.82000   0.
    63.10250  2932.38500   0.
    65.87750  2931.91500   0.
    67.26500  2931.88000   0.
    68.65250  2931.84500   0.
    71.43000  2931.69750   0.
    72.82000  2931.58500   0.
    74.21000  2931.47250   0.
    76.98750  2931.44500   0.
    78.37500  2931.53000   0.
    79.76250  2931.61500   0.
    82.53750  2931.75500   0.
    83.92500  2931.81000   0.
     6.60134  2937.05984   0.
    20.80435  2932.52560   0.
     3.78758  2946.36592   0.
    15.48523  2940.98228   0.
    29.30091  2934.50364   0.
    23.90594  2939.46561   0.
    40.87322  2931.62711   0.
     1.03219  2951.87344   0.
    10.83406  2946.32292   0.
    20.42668  2943.42459   0.
    48.80952  2930.83467   0.
    35.50309  2935.49258   0.
     7.54365  2949.73854   0.
    28.57967  2939.84283   0.
    15.90963  2945.83181   0.
    44.30452  2933.27820   0.
    -0.12722  2955.42655   0.
    24.47411  2943.04615   0.
     4.45051  2952.86019   0.
    40.01017  2935.22543   0.
    52.75593  2931.58993   0.
    13.75183  2934.27842   0.
    32.31862  2938.44653   0.
     0.40990  2931.04902   0.
    19.20708  2946.27332   0.
    57.19103  2930.55709   0.
    -0.97178  2947.27328   0.
    19.39705  2939.49643   0.
    11.08068  2950.12444   0.
    32.86215  2930.47012   0.
     7.41320  2941.82707   0.
    13.76382  2948.77946   0.
    27.17579  2942.79365   0.
     7.27112  2952.68663   0.
     2.71547  2954.94653   0.
    22.91159  2945.17994   0.
     2.00816  2941.86911   0.
    24.73355  2934.79062   0.
    47.86753  2934.00196   0.
    50.62083  2933.29089   0.
    60.15732  2930.28185   0.
    37.65425  2937.53830   0.
    44.64836  2929.77041   0.
    10.93416  2939.02064   0.
     4.26476  2949.76242   0.
    36.78915  2931.78219   0.
     7.36345  2946.13476   0.
    30.92470  2941.06806   0.
     6.19921  2931.10091   0.
    35.16618  2938.51604   0.
    16.36294  2929.87801   0.
    13.43632  2943.77014   0.
    42.64967  2935.50406   0.
    26.89596  2931.23775   0.
     1.59760  2936.73753   0.
    17.19200  2948.13905   0.
    -0.61497  2957.60981   0.
    26.49360  2937.36117   0.
     9.56799  2951.50953   0.
    17.55858  2943.77119   0.
    55.26825  2932.33039   0.
    22.03247  2936.46128   0.
    16.10828  2937.24515   0.
    22.48452  2941.40733   0.
    20.86327  2946.43955   0.
    29.71126  2937.35408   0.
    32.14062  2935.59882   0.
    45.26358  2935.44707   0.
    29.19256  2942.39482   0.
    25.22337  2944.48902   0.
    25.77440  2940.40763   0.
     5.12787  2951.33100   0.
     9.72036  2943.07255   0.
     0.63027  2944.64860   0.
     5.15669  2954.13690   0.
    33.80274  2940.56791   0.
     1.57076  2956.41210   0.
     9.31000  2947.97928   0.
     9.87726  2933.53233   0.
    53.60824  2932.85261   0.
    40.63972  2936.89193   0.
    13.47285  2946.23828   0.
    37.68088  2934.75035   0.
    46.32767  2931.88185   0.
    18.64740  2941.16071   0.
    13.09413  2950.32980   0.
    18.01744  2935.92389   0.
     0.55332  2948.73049   0.
     5.35766  2947.55011   0.
    42.44669  2933.52960   0.
    57.75733  2932.24094   0.
    23.68300  2931.83870   0.
    19.94397  2947.74183   0.
    61.81887  2931.15328   0.
[...]
POINT_DATA      1414
CELL_DATA      2568
SCALARS Resistivity(ohm.m) double 1
LOOKUP_TABLE default
          1232.14304          1849.86202          2180.53488          1171.34130           507.79716          2185.07196          1276.97275          1504.57721          1682.99625          2082.21046           800.93862          2044.62082           576.87717          2357.56022          2320.71132          1899.84747          1660.53893           475.07094           474.74374          2363.06241          1190.85593          1961.51655          1353.25370           590.07628          1945.84259           488.25796           253.50186          2187.83173          2230.66616          2159.09130           491.92849           496.90311          1767.35505           410.17760           343.16231          1632.22938           763.41950           983.48037          1294.48883          1504.24956          1852.90366           698.43313           424.07570          2345.01708           302.54508           426.79511          2905.44390           857.62829           605.25863           956.02830          2609.53320          1928.32715          1087.44150          1644.61566          2177.00381           929.04256           326.77117          2150.96989           449.30428          1174.44386           516.35011          2198.06582           470.40215          1900.10869           253.16520          1588.66741          2163.92320          2064.38053           266.00414           686.19589           478.33253           821.48204          2107.65210           361.62843           319.19350          2884.82412          1561.64546           472.38817           348.22888          2759.90133          2644.71073          1475.97267           420.07594           434.81006          2119.47316           758.94854           303.93498          2125.51094           901.66277          1981.79996          1112.34828           326.67901          2166.18923           371.40445          1736.31405          2067.08513           578.32590          1332.34058          2235.87977          1044.53128          1674.29214           525.41516           613.15961           724.56557          1085.58083          1738.63780           504.52877           996.58756          2073.27639          1425.90791           391.03027          1143.13408          2523.70323          1909.22265          2069.86736          1335.30330          1068.89636          1598.09080           421.37442           289.73588          2277.12644          1517.62989          2951.32005           719.70205           547.15901          2130.59756          2421.26816          3160.38426          1909.01109          1411.44985          2108.23184          1146.39483          1278.04351          2314.23045           844.44060          2791.54682           393.66282          1724.81777          1040.97410          1390.16109          1707.72248           507.54390           595.61304          1335.52183          1743.22489           548.61788           463.67755          1590.84054          2023.08033           504.56485          2168.46717          1977.87794           971.09972           707.95451          2314.13298           288.90236          1659.23923           417.20935          2252.65489          1332.83812          1270.42347           508.16638          2324.86052           486.92724          2146.70041           522.42213          1408.54479          1788.61811          1946.33110          1807.90143           732.79356           771.22296           673.99965           255.32304           397.14306           977.90805           784.86799          3429.85906          2631.61964          1217.77915          2257.46431          1492.61750          2064.27721           718.95074           521.75500           982.99076           849.66358           625.02321           907.76853          2496.80402          1265.97295          2445.46243           561.67688          2642.63441           253.51762           484.40627          2590.93292          2103.05600          1330.59948           394.32872           293.04167           858.03967          1895.38594          1516.42923          1797.40816          1084.95585          3712.40825          2179.20428           364.98916          2146.47581          1394.12493           577.41936           406.58456           309.41723           541.06468          1272.79787          2372.44042           476.93074          1349.50137           511.51223           911.42837          1451.53377          1184.24906           322.06309           611.32104           606.14727           403.34320           513.85973          1306.35352           307.03077          1102.36752          1983.68698          1526.10837          2888.06114          2389.12470          1730.18589          2441.73592          1531.49841          1527.12181          1472.37946          2590.54205           631.62632           965.86350           368.66736          2483.43153           263.12310          1957.18999           493.72461           468.59470          2117.94070           256.45913          1991.70282          1810.12080           649.58484          2075.61711          1014.95619           626.38100           689.41759           677.05050          2825.95302           543.38982          2140.30401           509.65820           395.76115           457.56093          1737.98395           328.33815          2173.11066           890.54843          2198.78691          1048.60503          2061.87499          2414.26433          2217.52172           453.26565          1734.23414          2133.43073           454.50376           717.50746           648.90610           464.69810          1435.49233           267.29866           963.97285           956.76051          2188.06384           448.98439          2411.15227           594.05312           495.31681           974.90411           296.62130          2344.98916           611.28870          2027.59549          2245.08622          1566.70148           520.80981           401.25423           614.15847          1023.50344           448.69543          2513.97890          2537.35551           417.65217          1873.96206          1377.93537          1624.89100          1983.35828           403.18874           649.40936           553.32699           267.84595          2203.71801           803.35526           319.46666           497.47075          1208.80533          2712.69628           462.02485          3184.03942           370.12350           996.96477           476.78015           520.67348          1267.91671           476.11029          1430.77498          1076.53738          2815.00307          1876.22963          2162.31398           466.77911          1694.27803           321.77157           375.72507           562.94055           571.25815          3086.84522           520.77158          2208.92451           434.77341          2147.13780           476.50765           554.59112          1865.47510          1300.34930          1168.96818           475.19056          2208.02691           477.12521          2466.02278           750.84436           366.84943           450.01646          2145.68399           494.44833          1709.21998           287.68215           353.12129           857.02860          1562.33809           936.12248           474.87021          1415.30797           446.36649           346.21306          2253.31378          1859.02367          2612.64705           458.44055          1347.05980          1498.86336          1046.92248           275.29979          2639.25881           384.21987           470.64858           444.15261          2097.32426          1453.31702           453.88859          1819.97228          2423.52171           269.59395          1396.80918           541.96865          1461.87214           432.40212          1624.47093           654.72578           306.69401          1483.53204          1333.26744           453.84952           832.70324           518.65118          1381.50730          1796.66723          1083.25591           531.97112           574.16661          1461.10131          1462.06804          1428.25475           859.62774           495.85358           944.30072          2206.52370          1772.76120          1639.30857          2239.55902          1073.18875           619.52905          1125.27806          2496.21369           683.80408           913.42267           683.91873          1849.40470          1037.23748           352.41487          2239.13385          1546.00336          1402.36938           260.60392          1625.27056           537.78295          1474.84670           508.94861          1455.31795           498.86790           450.96930          1880.63795          1106.77717          1570.60771          1634.67573           625.86513          1943.75093          1317.16501          3440.86215           568.99966          1254.51324          2024.30011          1204.65343          1170.57011          1318.13911          1289.03650          4007.22152           834.24397          3219.83173          1695.95634          1546.84570          1238.43538          1696.04546           827.17642          2196.62106           912.06807          1482.33177           455.29643          1978.80563          1436.27138           865.77169          1398.22419          2145.69643           816.42033           898.61271          1261.65960          1685.36863          1779.69980           856.79108          1905.70814           898.87318           270.89929          2001.80954          3728.22894          1127.04277           416.20008          1619.40235           709.59151          1066.02153          1888.96275           490.35968           562.39328          2125.34246          2737.04923          1342.32764           356.21836           699.95118           773.46270          1377.51859          1225.29501          1102.63525          1545.24126           775.10445          1491.53693           742.83782          1134.97016          2510.76795          1885.48184           655.78784           322.46685           557.97843          1400.17353           757.89038          1337.95722          3509.54417          1367.77582           328.89233           470.87940          1367.03639          1313.65960           902.59430           364.56284          3078.64242          1411.23633           334.17463          3197.37344          2300.02289           438.65152          1530.86527          1344.43294          1136.49346          1287.61734          1148.22365           503.74254          1700.30805          1474.25866          1504.40077          1348.48566           669.76149          1814.49919           473.65957          1267.95013           530.55608           451.15889           694.86157          1835.47661          1194.93469           924.04779           465.38990           352.37516          1816.70635          1247.05888          4073.94211          4333.97705          3457.86367          2012.71974          1985.00494          2153.58637          3723.77236          5117.38419           684.94466          4547.57910           406.45300          1142.62317          1501.21152           634.56889          3431.67835          4805.71087          1368.54059           450.93673          2215.20520          2761.95829           812.21186           903.11730          1450.32455          4439.25942          1417.51024          2274.00699           956.67980           589.51021          1385.47882          1585.37684           463.11100          3337.84431           535.10816          1403.22583          5335.64926          4119.28573          1787.70591          4916.54038           307.73438           862.38050           507.66673          1956.63707          2749.24140          1758.52488          3256.29220          1967.73957          2703.33882           778.02320          1694.66949          1262.45440          1809.39678          8151.14549          3828.35577           986.40376          4798.14364          4371.20079           787.20426           665.98423          4859.87123          2795.47585          4549.15147          4842.85552          1486.71938           931.20559           633.19823           507.28838           867.26387          4605.50140          1597.11118          1074.46474          1566.40397           354.12342          1146.66974          1846.67991          3759.69028          1059.98014           839.85996           713.83966           788.83477          1663.33858          1504.18693           867.40326          3239.82397          3044.67688          3231.46852          3255.66951          5971.30586          4173.65983          2584.23302           571.50490          4403.53129          1295.54743          1582.50649           720.58401          1413.00181           877.08863           367.43561          5987.64411          5256.81225          1493.52656          1673.58236          2824.45496          2415.70856          3350.13324          2838.77469           978.11988          1386.13237           578.69390           767.30235           400.00413           535.93963           822.55122           611.15011          2194.77619          4279.39143          3428.34912          1434.58503          2319.27111          1443.92610          1619.79130          7842.66756          4900.92512          1931.14612           418.14167           642.78166          4887.22230           713.54723          4097.47501          4080.33095          1115.62882          2312.16709           701.39845           908.62014          1120.42163          2377.30815          2437.91980          2821.72788           627.50852           502.81348          1239.69628           373.85270           610.36076           449.94446          3574.33397          5301.39553           466.66179          2917.71042           905.48843          2701.96652          1248.67961           628.81802           680.84811           712.09407           679.29958          2079.04417           810.81585          1466.23039           747.01610          2610.39260          1804.33757          4042.69313          2742.58893           620.57208           548.97752           348.48660          3037.42899           740.75405           758.92110          1294.24087          2695.81241           699.05189           875.01081           532.35507          1300.08095           980.90300          1701.07044          1308.95946           630.20148           744.86517           695.74017          2715.37474          1930.12270          1222.82721          7490.26021          1106.00282           964.12060           916.09268          1717.49451          2636.53833          1477.59970          1558.22372          1696.61976          2760.10521           714.34835          7570.51862          1387.84120          2761.86692           874.06984          1255.90237          4346.93067          2852.57159           791.96817          1137.47484          3392.99099           494.95042           564.18902          1317.82560          2838.31210          5500.16365          1488.97949          6875.99573          1414.33563          1774.89420          1478.17298          1228.12348           443.01707           806.97823          2795.15316           710.33812          4128.35908           617.67934          3606.14074           858.80151           660.20410          1491.29213          1924.92433          2907.45760          4576.89954          2758.15034          1451.36251          1709.57531          1336.55618          5675.65676          7148.90346          1969.56338          1041.55118          2867.28946           645.97582          1204.53203           871.41568          2817.61625          1214.26696          1002.23835           592.04878           626.94840          3543.01239          1128.70032           825.01020          5633.98985          3845.25519          2266.59327          1360.51810          7337.11242           825.02043          2677.53984          2891.86748          2342.72184          1247.10477          2961.69709          5264.10600          1697.74713           415.66003           708.15551           880.97262          1902.91674          1695.08959           721.50949           716.57031          6350.64679           776.96143          1203.34476          1939.26003          4174.78756          5018.36383           451.69208          1348.15131           910.43535          1086.17878          1972.77126           786.56589           841.56905          1535.78438           865.77279           582.81229           402.73824           821.34251          2946.50543           517.01199          2926.60277          1671.78599          2106.61555          1396.28057          1857.03770          1531.02260           414.08406          4158.31318          1552.78451          1964.01040          2149.09965          2189.16899          5252.11023           929.64507          5394.58887           608.69072           704.73709          1681.52852          1214.67087          7304.22726          2661.80571           934.88984          1704.68233          4005.00675          3456.61280           603.77727          4930.44472          1475.83924          2807.59230          1105.32659          3380.68843          3754.77734           515.76943          3511.96476          3791.86148          2473.57573          5371.48169           884.27518           824.57894          1207.30262          2249.63311           468.06910          9241.45382          3898.11067           617.35741          1716.92172          1781.76501          2042.70789           782.48023          1220.35323         12686.18383           730.89396          2334.11511          1332.26220           491.27111           821.84839          2645.20185          5286.91727          6309.87353          1577.12350          2471.82931          2744.62039          4405.62080           770.27251          1384.35017          2124.52856          1827.43672          5524.17265           599.73974          1211.67779          3014.09799           877.89972          4081.95764          2442.22223          6720.01992          2255.45738          1122.36694          1138.17681           635.20333          5117.43858          7133.47082          2130.55597           328.26480           384.56371           800.20291           832.33362          6129.92073          1365.93525          2143.83932          3132.58866          2353.22875          5609.08676          5445.60052           354.33843           651.35062           821.98897          1173.07296           681.83976          4270.81993          4051.88642          1425.15467           649.80691          1116.32201          2316.87798          3790.20936          2383.65632          2194.02344           973.15102          4133.28429          7169.20565           472.26449           672.00488          1765.77987          7610.39109          2012.57840          2881.90133          4786.86088           705.57173          1873.25598          4265.45892           569.28944          1402.52962           966.03933          6102.25524           917.40821          1695.19773          3041.23534          5226.97297          5504.70910          5896.08315          4635.80062          4574.33764          1827.40569           860.88982          3468.11942         10170.92555           617.74145          2686.83076          2768.78361           287.24288          2511.20500          3543.10499          2706.75558           457.09774          4346.66609           870.92950          3486.44326          4242.43637          1907.97935           768.39720          3250.82983          3501.04222          5356.22994          5937.68159          5353.13235           640.07599           653.72564          1350.23570          4915.68886          1104.44112          2951.12321           915.58939           632.876