# vtk DataFile Version 3.0
Output from R2
ASCII
DATASET UNSTRUCTURED_GRID
POINTS       1414 double
     0.00000  2968.10000   0.
     1.54000  2966.60000   0.
     3.08000  2964.90000   0.
     4.61000  2964.10000   0.
     6.15000  2963.30000   0.
     7.69000  2962.60000   0.
     9.23000  2961.50000   0.
    10.76000  2960.70000   0.
    12.30000  2960.00000   0.
    13.84000  2959.30000   0.
    15.38000  2958.70000   0.
    16.91000  2958.10000   0.
    18.45000  2957.30000   0.
    19.99000  2956.60000   0.
    21.52000  2955.80000   0.
    23.06000  2955.00000   0.
    24.60000  2954.30000   0.
    26.14000  2953.50000   0.
    27.68000  2952.80000   0.
    29.21000  2951.90000   0.
    30.75000  2951.10000   0.
    32.29000  2950.20000   0.
    33.83000  2949.50000   0.
    35.36000  2948.70000   0.
    36.90000  2948.10000   0.
    38.44000  2947.30000   0.
    39.98000  2946.70000   0.
    41.51000  2946.10000   0.
    43.05000  2945.50000   0.
    44.59000  2945.10000   0.
    46.13000  2944.50000   0.
    47.66000  2944.10000   0.
    49.20000  2943.60000   0.
    50.74000  2943.40000   0.
    52.28000  2943.00000   0.
    53.81000  2942.50000   0.
    55.35000  2942.10000   0.
    56.89000  2941.60000   0.
    58.43000  2941.00000   0.
    59.96000  2940.60000   0.
    61.50000  2940.10000   0.
    63.04000  2939.50000   0.
    64.58000  2939.10000   0.
    66.11000  2939.20000   0.
    67.65000  2939.20000   0.
    69.19000  2939.10000   0.
    70.73000  2938.90000   0.
    72.26000  2938.60000   0.
    73.80000  2938.30000   0.
    75.34000  2938.50000   0.
    76.88000  2938.70000   0.
    78.41000  2938.60000   0.
    79.95000  2938.80000   0.
    81.49000  2938.90000   0.
    83.03000  2939.10000   0.
    84.56000  2939.10000   0.
     3.42000  2957.55000   0.
     8.97000  2954.51000   0.
    14.52000  2951.86000   0.
    20.07000  2949.38000   0.
    25.63000  2946.59000   0.
    31.18000  2943.67000   0.
    36.73000  2940.99000   0.
    42.28000  2938.62000   0.
    47.83000  2936.87000   0.
    53.39000  2935.46000   0.
    58.94000  2933.69000   0.
    64.49000  2931.95000   0.
    70.04000  2931.81000   0.
    75.60000  2931.36000   0.
    81.15000  2931.70000   0.
     0.51333  2967.60000   0.
     1.02667  2967.10000   0.
     2.05333  2966.03333   0.
     2.56667  2965.46667   0.
     3.59000  2964.63333   0.
     4.10000  2964.36667   0.
     5.12333  2963.83333   0.
     5.63667  2963.56667   0.
     6.66333  2963.06667   0.
     7.17667  2962.83333   0.
     8.20333  2962.23333   0.
     8.71667  2961.86667   0.
     9.74000  2961.23333   0.
    10.25000  2960.96667   0.
    11.27333  2960.46667   0.
    11.78667  2960.23333   0.
    12.81333  2959.76667   0.
    13.32667  2959.53333   0.
    14.35333  2959.10000   0.
    14.86667  2958.90000   0.
    15.89000  2958.50000   0.
    16.40000  2958.30000   0.
    17.42333  2957.83333   0.
    17.93667  2957.56667   0.
    18.96333  2957.06667   0.
    19.47667  2956.83333   0.
    20.50000  2956.33333   0.
    21.01000  2956.06667   0.
    22.03333  2955.53333   0.
    22.54667  2955.26667   0.
    23.57333  2954.76667   0.
    24.08667  2954.53333   0.
    25.11333  2954.03333   0.
    25.62667  2953.76667   0.
    26.65333  2953.26667   0.
    27.16667  2953.03333   0.
    28.19000  2952.50000   0.
    28.70000  2952.20000   0.
    29.72333  2951.63333   0.
    30.23667  2951.36667   0.
    31.26333  2950.80000   0.
    31.77667  2950.50000   0.
    32.80333  2949.96667   0.
    33.31667  2949.73333   0.
    34.34000  2949.23333   0.
    34.85000  2948.96667   0.
    35.87333  2948.50000   0.
    36.38667  2948.30000   0.
    37.41333  2947.83333   0.
    37.92667  2947.56667   0.
    38.95333  2947.10000   0.
    39.46667  2946.90000   0.
    40.49000  2946.50000   0.
    41.00000  2946.30000   0.
    42.02333  2945.90000   0.
    42.53667  2945.70000   0.
    43.56333  2945.36667   0.
    44.07667  2945.23333   0.
    45.10333  2944.90000   0.
    45.61667  2944.70000   0.
    46.64000  2944.36667   0.
    47.15000  2944.23333   0.
    48.17333  2943.93333   0.
    48.68667  2943.76667   0.
    49.71333  2943.53333   0.
    50.22667  2943.46667   0.
    51.25333  2943.26667   0.
    51.76667  2943.13333   0.
    52.79000  2942.83333   0.
    53.30000  2942.66667   0.
    54.32333  2942.36667   0.
    54.83667  2942.23333   0.
    55.86333  2941.93333   0.
    56.37667  2941.76667   0.
    57.40333  2941.40000   0.
    57.91667  2941.20000   0.
    58.94000  2940.86667   0.
    59.45000  2940.73333   0.
    60.47333  2940.43333   0.
    60.98667  2940.26667   0.
    62.01333  2939.90000   0.
    62.52667  2939.70000   0.
    63.55333  2939.36667   0.
    64.06667  2939.23333   0.
    65.34500  2939.15000   0.
    66.88000  2939.20000   0.
    68.42000  2939.15000   0.
    69.70333  2939.03333   0.
    70.21667  2938.96667   0.
    71.24000  2938.80000   0.
    71.75000  2938.70000   0.
    72.77333  2938.50000   0.
    73.28667  2938.40000   0.
    74.31333  2938.36667   0.
    74.82667  2938.43333   0.
    75.85333  2938.56667   0.
    76.36667  2938.63333   0.
    77.64500  2938.65000   0.
    78.92333  2938.66667   0.
    79.43667  2938.73333   0.
    80.72000  2938.85000   0.
    82.00333  2938.96667   0.
    82.51667  2939.03333   0.
    83.79500  2939.10000   0.
     0.08400  2959.57200   0.
     1.19600  2958.89800   0.
     2.30800  2958.22400   0.
     4.53000  2956.94200   0.
     5.64000  2956.33400   0.
     6.75000  2955.72600   0.
     7.86000  2955.11800   0.
    10.35750  2953.84750   0.
    11.74500  2953.18500   0.
    13.13250  2952.52250   0.
    15.90750  2951.24000   0.
    17.29500  2950.62000   0.
    18.68250  2950.00000   0.
    21.18200  2948.82200   0.
    22.29400  2948.26400   0.
    23.40600  2947.70600   0.
    24.51800  2947.14800   0.
    26.74000  2946.00600   0.
    27.85000  2945.42200   0.
    28.96000  2944.83800   0.
    30.07000  2944.25400   0.
    32.56750  2943.00000   0.
    33.95500  2942.33000   0.
    35.34250  2941.66000   0.
    38.11750  2940.39750   0.
    39.50500  2939.80500   0.
    40.89250  2939.21250   0.
    43.66750  2938.18250   0.
    45.05500  2937.74500   0.
    46.44250  2937.30750   0.
    49.22000  2936.51750   0.
    50.61000  2936.16500   0.
    52.00000  2935.81250   0.
    54.77750  2935.01750   0.
    56.16500  2934.57500   0.
    57.55250  2934.13250   0.
    60.32750  2933.25500   0.
    61.71500  2932.82000   0.
    63.10250  2932.38500   0.
    65.87750  2931.91500   0.
    67.26500  2931.88000   0.
    68.65250  2931.84500   0.
    71.43000  2931.69750   0.
    72.82000  2931.58500   0.
    74.21000  2931.47250   0.
    76.98750  2931.44500   0.
    78.37500  2931.53000   0.
    79.76250  2931.61500   0.
    82.53750  2931.75500   0.
    83.92500  2931.81000   0.
     6.60134  2937.05984   0.
    20.80435  2932.52560   0.
     3.78758  2946.36592   0.
    15.48523  2940.98228   0.
    29.30091  2934.50364   0.
    23.90594  2939.46561   0.
    40.87322  2931.62711   0.
     1.03219  2951.87344   0.
    10.83406  2946.32292   0.
    20.42668  2943.42459   0.
    48.80952  2930.83467   0.
    35.50309  2935.49258   0.
     7.54365  2949.73854   0.
    28.57967  2939.84283   0.
    15.90963  2945.83181   0.
    44.30452  2933.27820   0.
    -0.12722  2955.42655   0.
    24.47411  2943.04615   0.
     4.45051  2952.86019   0.
    40.01017  2935.22543   0.
    52.75593  2931.58993   0.
    13.75183  2934.27842   0.
    32.31862  2938.44653   0.
     0.40990  2931.04902   0.
    19.20708  2946.27332   0.
    57.19103  2930.55709   0.
    -0.97178  2947.27328   0.
    19.39705  2939.49643   0.
    11.08068  2950.12444   0.
    32.86215  2930.47012   0.
     7.41320  2941.82707   0.
    13.76382  2948.77946   0.
    27.17579  2942.79365   0.
     7.27112  2952.68663   0.
     2.71547  2954.94653   0.
    22.91159  2945.17994   0.
     2.00816  2941.86911   0.
    24.73355  2934.79062   0.
    47.86753  2934.00196   0.
    50.62083  2933.29089   0.
    60.15732  2930.28185   0.
    37.65425  2937.53830   0.
    44.64836  2929.77041   0.
    10.93416  2939.02064   0.
     4.26476  2949.76242   0.
    36.78915  2931.78219   0.
     7.36345  2946.13476   0.
    30.92470  2941.06806   0.
     6.19921  2931.10091   0.
    35.16618  2938.51604   0.
    16.36294  2929.87801   0.
    13.43632  2943.77014   0.
    42.64967  2935.50406   0.
    26.89596  2931.23775   0.
     1.59760  2936.73753   0.
    17.19200  2948.13905   0.
    -0.61497  2957.60981   0.
    26.49360  2937.36117   0.
     9.56799  2951.50953   0.
    17.55858  2943.77119   0.
    55.26825  2932.33039   0.
    22.03247  2936.46128   0.
    16.10828  2937.24515   0.
    22.48452  2941.40733   0.
    20.86327  2946.43955   0.
    29.71126  2937.35408   0.
    32.14062  2935.59882   0.
    45.26358  2935.44707   0.
    29.19256  2942.39482   0.
    25.22337  2944.48902   0.
    25.77440  2940.40763   0.
     5.12787  2951.33100   0.
     9.72036  2943.07255   0.
     0.63027  2944.64860   0.
     5.15669  2954.13690   0.
    33.80274  2940.56791   0.
     1.57076  2956.41210   0.
     9.31000  2947.97928   0.
     9.87726  2933.53233   0.
    53.60824  2932.85261   0.
    40.63972  2936.89193   0.
    13.47285  2946.23828   0.
    37.68088  2934.75035   0.
    46.32767  2931.88185   0.
    18.64740  2941.16071   0.
    13.09413  2950.32980   0.
    18.01744  2935.92389   0.
     0.55332  2948.73049   0.
     5.35766  2947.55011   0.
    42.44669  2933.52960   0.
    57.75733  2932.24094   0.
    23.68300  2931.83870   0.
    19.94397  2947.74183   0.
    61.81887  2931.15328   0.
[...]
POINT_DATA      1414
CELL_DATA      2568
SCALARS Resistivity(ohm.m) double 1
LOOKUP_TABLE default
          1240.41994          1769.17519          2126.60679          1190.39414           519.60384          2141.68657          1288.54044          1509.15583          1596.09582          2031.18432           792.74658          2007.32597           599.80638          2329.54380          2280.52681          1891.17047          1582.26604           477.84314           446.47000          2404.96740          1192.22519          1926.20479          1324.30929           561.05546          1855.01622           459.77781           266.30640          2135.06352          2174.21883          2114.31818           471.42535           462.85385          1688.69111           397.69869           371.08633          1671.67187           694.14235          1018.53348          1274.31022          1547.82722          1762.76287           687.22164           434.55882          2311.62570           320.27768           406.24326          3065.65088           857.90299           616.25071           899.43579          2708.74645          1835.96983          1077.32492          1563.31978          2171.48556           971.39278           352.58217          2102.32292           403.27536          1167.14060           539.34969          2128.60633           475.73399          1875.55319           268.25775          1507.83577          2093.44004          2000.97907           284.99360           728.35984           444.35577           750.47858          2027.76502           389.34378           331.55553          2994.96618          1521.72808           477.02532           346.63021          2881.55376          2740.58606          1466.89199           386.68575           410.16184          2037.98806           808.26029           326.12836          2053.02368           835.21157          1914.74807          1136.15371           341.73892          2122.15533           382.60490          1783.48316          1980.88738           589.72891          1317.74003          2175.06330          1077.43681          1615.14971           539.10291           640.11952           724.00759          1060.73845          1649.58951           503.22273           995.19730          2084.49055          1404.31138           407.85016          1113.16231          2538.20467          1848.03421          1988.22647          1286.20179          1026.64724          1527.73484           418.91223           311.99799          2280.58508          1477.63312          3103.31935           752.99665           560.88340          2052.52633          2407.32809          3349.15098          1865.57070          1424.43216          2036.37770          1168.94663          1250.87279          2274.89576           859.54924          2872.44233           406.64848          1637.41152          1078.64055          1332.20474          1636.29569           508.59012           616.70290          1339.58255          1661.01073           565.37069           424.22911          1536.05536          1934.64128           494.97610          2131.09581          1887.12700           983.25828           668.62319          2296.62864           298.66771          1645.67856           410.68310          2198.32290          1294.80079          1254.81167           500.29423          2287.03572           448.74881          2095.48303           553.94685          1437.82184          1804.06858          1858.80960          1720.28384           704.12744           795.47739           707.22951           272.55532           373.93801           929.86158           832.97487          3622.68165          2670.93669          1220.36002          2226.86445          1468.93165          1985.27979           754.83466           544.27050          1027.71044           900.45135           650.31277           864.91018          2513.00380          1245.61404          2447.63839           578.04080          2719.55565           270.04577           481.18243          2656.13206          2037.74176          1320.84779           386.00401           297.64201           795.80055          1843.44770          1452.77761          1799.44922          1118.24452          3924.07321          2160.18240           363.76632          2110.33544          1355.34364           602.31379           386.04718           334.38854           531.19805          1272.11467          2346.65087           442.62048          1338.92776           501.70335           848.19624          1428.91560          1194.98654           347.62418           642.01835           634.61071           404.64034           524.11274          1260.70169           317.99439          1058.46235          1993.06425          1480.50313          2982.60890          2406.68555          1706.30823          2471.73765          1503.40349          1497.31961          1430.60354          2639.98053           650.15160          1014.53718           391.41483          2505.70252           275.01631          1881.52378           466.96979           477.29412          2064.93276           266.59336          1984.24828          1774.68350           680.28017          1993.85575          1033.08304           625.06821           724.83191           707.33530          2901.49378           578.86846          2092.43318           521.47777           411.61561           409.45853          1703.63606           355.40049          2131.92841           943.28242          2168.56356          1006.26938          2040.15065          2396.46246          2168.25114           423.38063          1667.39142          2106.81365           430.93349           664.86771           635.77635           444.21503          1376.24589           283.50198           991.39196           935.22107          2140.93094           440.23992          2454.82857           622.53284           500.97606           920.05108           315.17458          2321.27162           646.51471          1941.78624          2225.99790          1531.57761           517.93632           423.67962           636.35302           979.69367           408.69613          2580.79967          2560.71454           419.38818          1781.78059          1335.55875          1557.73618          1895.58436           409.79881           683.55899           584.86704           285.07337          2178.16997           769.09117           342.54037           482.86742          1172.74308          2761.68425           429.73683          3341.20626           362.84631           959.97120           476.80374           517.10399          1256.20763           430.61323          1369.08258          1112.18810          2920.46099          1800.70113          2101.88471           485.10761          1657.12145           327.04267           361.40364           573.88222           600.44829          3236.61402           513.90573          2143.43799           446.08500          2078.56888           488.21407           565.84735          1773.38819          1293.26443          1159.35878           424.00911          2147.92276           487.33990          2469.02517           793.41580           389.58162           430.56339          2068.25001           474.80409          1665.86157           302.63858           360.49082           809.16815          1486.40191           928.58961           500.63408          1365.42702           474.59126           370.74756          2249.56361          1816.54613          2642.29565           445.12721          1302.73143          1445.45351           998.28730           290.31016          2695.38579           367.60467           438.91935           448.94301          2013.15456          1408.34600           463.58543          1728.75054          2430.92881           275.27106          1345.53632           571.33878          1434.16760           404.75473          1591.41208           696.73752           315.73248          1418.96779          1361.35926           461.68113           808.21077           549.11348          1365.85293          1706.79546          1062.14686           567.06157           608.45097          1427.78984          1393.12110          1402.39423           902.73932           477.38272           990.27937          2175.57653          1717.08459          1597.75175          2179.56491          1040.71825           584.16244          1105.88282          2573.52384           649.97367           870.14152           698.84537          1800.71135          1011.94318           349.21735          2184.58472          1516.07571          1384.59937           276.92416          1634.03796           571.08668          1418.84790           522.16712          1429.44737           509.01064           460.54327          1913.27426          1119.80418          1511.66830          1589.17496           634.91499          1852.47859          1304.55098          3641.44857           549.64865          1253.07121          2048.78445          1211.26286          1173.44225          1274.34090          1278.64085          4239.52144           879.90778          3400.14919          1642.33204          1530.90774          1213.92255          1695.36545           860.27059          2129.56517           961.13795          1455.42300           456.98102          1894.36544          1402.02556           914.83179          1371.91538          2087.84676           855.40557           868.24238          1229.87540          1707.00588          1730.33757           783.33712          1820.30975           925.86648           286.67732          1921.82111          3940.18658          1099.42319           387.93046          1589.04221           733.59807          1037.68006          1908.45685           480.93361           580.39228          2066.04571          2863.79961          1313.45399           375.03054           652.00629           804.35083          1350.36426          1197.17000          1133.48049          1468.82187           818.08329          1420.44391           782.22859          1151.09299          2513.99208          1796.48098           651.10665           339.29873           590.48465          1383.44490           796.48053          1328.67885          3694.22254          1349.86729           334.38640           451.16430          1339.64642          1309.01334           921.16966           378.05754          3210.13190          1348.69820           343.60792          3339.51340          2266.32898           430.32931          1496.76495          1325.91915          1161.24255          1263.76165          1169.00857           522.68103          1670.31498          1406.68987          1434.91876          1324.37917           701.94359          1786.85943           471.22595          1238.78008           558.33950           446.82861           730.18403          1773.18409          1207.60877           974.67847           459.41998           369.69793          1747.77861          1252.95204          4105.36341          4190.87973          3336.31895          2059.99551          2064.20327          2119.99272          3626.40502          4839.82565           647.54096          4501.25134           452.51514          1131.16812          1483.66949           649.44453          3680.88126          4745.93595          1385.53882           481.76401          2135.38968          2812.08307           770.21128           871.79168          1517.42906          4562.10185          1484.44576          2298.78452           962.49145           615.46430          1391.86093          1668.08209           477.79881          3574.10381           492.73108          1472.58914          5243.82577          4154.97258          1800.84893          4877.61080           301.62594           782.70680           454.93495          1998.83277          2895.66868          1801.07415          3289.93056          1891.41532          2775.19753           760.32949          1622.27333          1298.52320          1792.26404          8463.09900          3529.45157           913.09196          4920.23515          4078.64103           830.83534           665.75130          5073.06267          2948.63462          4538.38969          5039.66523          1558.19662           919.40565           623.99176           546.27043           828.67846          4485.04187          1653.36281          1057.97779          1637.05421           340.86480          1145.60841          1823.44658          3511.81653          1120.95847           890.92417           669.37295           834.37186          1676.43291          1536.76791           917.97657          3145.52246          2684.11663          3463.23929          3183.23393          5717.72923          4720.81530          2619.40059           588.95911          4451.36874          1300.13637          1637.43855           665.87082          1497.92038           927.16866           387.79430          6851.68421          5095.69283          1561.05701          1645.35072          2954.82539          2438.36601          3339.32633          2762.94606           959.72411          1403.92583           597.25753           792.08824           415.34526           502.59133           823.03288           648.57472          2119.92303          4452.91824          3676.49043          1494.15192          2307.34916          1399.26525          1688.05439          7952.93532          5164.51247          1963.16286           423.73429           587.61495          4879.94170           670.09558          4135.84070          4075.73036          1107.38356          2239.94659           691.67214           921.55310          1113.59959          2318.46035          2350.22557          2857.08634           613.97064           534.00713          1270.67610           376.74528           618.47825           491.80379          3551.62990          5200.43113           467.93008          3210.51930           865.23879          2766.66827          1272.42897           662.13422           679.84505           721.14922           684.72544          2063.54183           802.25957          1531.68433           722.60188          2570.11453          1872.39278          4268.52198          2765.10333           676.53423           554.57577           341.10582          2888.70684           759.39058           746.00328          1325.96921          2801.15924           698.43164           829.22417           551.56863          1321.40430          1050.95418          1718.96727          1358.25583           633.28653           759.54616           667.46897          2843.80249          1899.24432          1206.92907          7251.74595          1094.78701          1046.91411           901.20485          1741.99430          2719.60033          1536.76644          1551.97597          1739.50221          2653.29587           651.84784          7582.99904          1524.88135          2899.75406           943.69897          1289.82949          4062.09651          2848.19368           785.25705          1147.90012          3271.41139           464.30199           515.48629          1358.78517          2857.49770          6476.43777          1493.40866          7050.36130          1453.52297          1854.99019          1552.78285          1251.17536           446.67701           763.37507          2799.66857           654.72074          3980.26015           607.29511          3331.37562           817.00948           742.26657          1461.74564          1952.59582          2955.01533          5020.38731          2917.49338          1482.73685          1793.62339          1301.47707          5303.35002          7499.86980          2017.90258          1040.93339          3119.02104           656.60638          1224.21826           864.97163          2697.73408          1239.25255          1009.27733           563.70345           617.88185          3558.72872          1173.81815           782.16404          5900.42425          4095.53601          2200.29731          1398.82897          9092.46962           824.42248          2719.03772          3133.39697          2303.64412          1312.79755          2892.53182          5315.28806          1796.06588           447.02544           675.54514           844.36144          2038.07905          1774.18515           734.56919           707.55394          6438.81622           777.99164          1183.19428          1934.57303          3923.55151          6245.21799           490.48129          1325.32615           870.05031          1038.28000          2104.30911           753.45248           833.36385          1445.97116           853.31901           583.06164           432.61285           806.46720          3123.75663           464.55414          3113.87948          1720.62459          2088.45175          1431.59170          1775.79214          1612.08946           438.42392          4449.98252          1601.10893          2005.51285          2059.84074          2137.12168          7347.63952           911.01825          5400.07923           548.16663           689.22910          1640.55568          1239.77749          7528.40798          2788.41453           987.15328          1683.25590          4301.70784          3215.06791           617.92532          4889.24992          1596.19041          2799.29525          1102.94105          3566.54275          3857.82722           483.22292          3200.25152          3831.18977          2661.69055          6168.59590           855.95255           781.67825          1229.04443          2182.76557           453.80183          9497.46354          3842.68523           637.99703          1652.32916          1820.48792          2106.56496           782.99872          1244.36005         13777.46948           708.10846          2292.41451          1409.27860           467.07140           810.05414          2650.87010          5584.79760          6189.89117          1660.10700          2295.82619          2472.59021          4653.61807           739.73931          1388.22114          2102.50231          1806.29495          5628.00470           614.39138          1235.97110          2945.39088           844.94056          3879.11448          2479.87913          6644.83845          2697.11410          1290.22249          1145.92646           616.92016          5775.69148          7118.57254          2137.13823           286.34772           391.13450           820.96737           790.53486          6390.58919          1388.46615          2012.23014          3091.71987          2404.32555          5673.42214          6184.97483           365.60590           582.11714           782.43967          1185.91376           651.68863          4114.00128          3889.37442          1547.04510           698.39191          1103.84599          2240.23759          3790.67092          2289.29461          2187.11485          1012.41466          3868.98133          7156.69873           440.68097           689.74429          1839.08284          6906.61203          1968.21856          2967.73476          5013.81079           745.48026          1877.97652          4323.13940           540.53215          1460.02917          1027.95268          5992.75323           920.09002          1760.42061          3036.40299          5437.25279          5194.02109          6000.02074          4607.55367          4318.74187          1750.06144           909.66598          3364.25101         10237.48389           622.54189          2680.89249          2772.37355           295.22540          2491.27491          3415.76304          2541.72154           437.69147          4343.95654           824.13557          3252.51947          4589.29874          1921.87087           745.81040          3173.71432          3435.24677          5522.15488          6283.78755          5467.38254           641.21767           643.60102          1443.97711          4614.08455          1101.37862          2907.49039           925.85022           617.993