# vtk DataFile Version 3.0
Output from R2
ASCII
DATASET UNSTRUCTURED_GRID
POINTS       1414 double
     0.00000  2968.10000   0.
     1.54000  2966.60000   0.
     3.08000  2964.90000   0.
     4.61000  2964.10000   0.
     6.15000  2963.30000   0.
     7.69000  2962.60000   0.
     9.23000  2961.50000   0.
    10.76000  2960.70000   0.
    12.30000  2960.00000   0.
    13.84000  2959.30000   0.
    15.38000  2958.70000   0.
    16.91000  2958.10000   0.
    18.45000  2957.30000   0.
    19.99000  2956.60000   0.
    21.52000  2955.80000   0.
    23.06000  2955.00000   0.
    24.60000  2954.30000   0.
    26.14000  2953.50000   0.
    27.68000  2952.80000   0.
    29.21000  2951.90000   0.
    30.75000  2951.10000   0.
    32.29000  2950.20000   0.
    33.83000  2949.50000   0.
    35.36000  2948.70000   0.
    36.90000  2948.10000   0.
    38.44000  2947.30000   0.
    39.98000  2946.70000   0.
    41.51000  2946.10000   0.
    43.05000  2945.50000   0.
    44.59000  2945.10000   0.
    46.13000  2944.50000   0.
    47.66000  2944.10000   0.
    49.20000  2943.60000   0.
    50.74000  2943.40000   0.
    52.28000  2943.00000   0.
    53.81000  2942.50000   0.
    55.35000  2942.10000   0.
    56.89000  2941.60000   0.
    58.43000  2941.00000   0.
    59.96000  2940.60000   0.
    61.50000  2940.10000   0.
    63.04000  2939.50000   0.
    64.58000  2939.10000   0.
    66.11000  2939.20000   0.
    67.65000  2939.20000   0.
    69.19000  2939.10000   0.
    70.73000  2938.90000   0.
    72.26000  2938.60000   0.
    73.80000  2938.30000   0.
    75.34000  2938.50000   0.
    76.88000  2938.70000   0.
    78.41000  2938.60000   0.
    79.95000  2938.80000   0.
    81.49000  2938.90000   0.
    83.03000  2939.10000   0.
    84.56000  2939.10000   0.
     3.42000  2957.55000   0.
     8.97000  2954.51000   0.
    14.52000  2951.86000   0.
    20.07000  2949.38000   0.
    25.63000  2946.59000   0.
    31.18000  2943.67000   0.
    36.73000  2940.99000   0.
    42.28000  2938.62000   0.
    47.83000  2936.87000   0.
    53.39000  2935.46000   0.
    58.94000  2933.69000   0.
    64.49000  2931.95000   0.
    70.04000  2931.81000   0.
    75.60000  2931.36000   0.
    81.15000  2931.70000   0.
     0.51333  2967.60000   0.
     1.02667  2967.10000   0.
     2.05333  2966.03333   0.
     2.56667  2965.46667   0.
     3.59000  2964.63333   0.
     4.10000  2964.36667   0.
     5.12333  2963.83333   0.
     5.63667  2963.56667   0.
     6.66333  2963.06667   0.
     7.17667  2962.83333   0.
     8.20333  2962.23333   0.
     8.71667  2961.86667   0.
     9.74000  2961.23333   0.
    10.25000  2960.96667   0.
    11.27333  2960.46667   0.
    11.78667  2960.23333   0.
    12.81333  2959.76667   0.
    13.32667  2959.53333   0.
    14.35333  2959.10000   0.
    14.86667  2958.90000   0.
    15.89000  2958.50000   0.
    16.40000  2958.30000   0.
    17.42333  2957.83333   0.
    17.93667  2957.56667   0.
    18.96333  2957.06667   0.
    19.47667  2956.83333   0.
    20.50000  2956.33333   0.
    21.01000  2956.06667   0.
    22.03333  2955.53333   0.
    22.54667  2955.26667   0.
    23.57333  2954.76667   0.
    24.08667  2954.53333   0.
    25.11333  2954.03333   0.
    25.62667  2953.76667   0.
    26.65333  2953.26667   0.
    27.16667  2953.03333   0.
    28.19000  2952.50000   0.
    28.70000  2952.20000   0.
    29.72333  2951.63333   0.
    30.23667  2951.36667   0.
    31.26333  2950.80000   0.
    31.77667  2950.50000   0.
    32.80333  2949.96667   0.
    33.31667  2949.73333   0.
    34.34000  2949.23333   0.
    34.85000  2948.96667   0.
    35.87333  2948.50000   0.
    36.38667  2948.30000   0.
    37.41333  2947.83333   0.
    37.92667  2947.56667   0.
    38.95333  2947.10000   0.
    39.46667  2946.90000   0.
    40.49000  2946.50000   0.
    41.00000  2946.30000   0.
    42.02333  2945.90000   0.
    42.53667  2945.70000   0.
    43.56333  2945.36667   0.
    44.07667  2945.23333   0.
    45.10333  2944.90000   0.
    45.61667  2944.70000   0.
    46.64000  2944.36667   0.
    47.15000  2944.23333   0.
    48.17333  2943.93333   0.
    48.68667  2943.76667   0.
    49.71333  2943.53333   0.
    50.22667  2943.46667   0.
    51.25333  2943.26667   0.
    51.76667  2943.13333   0.
    52.79000  2942.83333   0.
    53.30000  2942.66667   0.
    54.32333  2942.36667   0.
    54.83667  2942.23333   0.
    55.86333  2941.93333   0.
    56.37667  2941.76667   0.
    57.40333  2941.40000   0.
    57.91667  2941.20000   0.
    58.94000  2940.86667   0.
    59.45000  2940.73333   0.
    60.47333  2940.43333   0.
    60.98667  2940.26667   0.
    62.01333  2939.90000   0.
    62.52667  2939.70000   0.
    63.55333  2939.36667   0.
    64.06667  2939.23333   0.
    65.34500  2939.15000   0.
    66.88000  2939.20000   0.
    68.42000  2939.15000   0.
    69.70333  2939.03333   0.
    70.21667  2938.96667   0.
    71.24000  2938.80000   0.
    71.75000  2938.70000   0.
    72.77333  2938.50000   0.
    73.28667  2938.40000   0.
    74.31333  2938.36667   0.
    74.82667  2938.43333   0.
    75.85333  2938.56667   0.
    76.36667  2938.63333   0.
    77.64500  2938.65000   0.
    78.92333  2938.66667   0.
    79.43667  2938.73333   0.
    80.72000  2938.85000   0.
    82.00333  2938.96667   0.
    82.51667  2939.03333   0.
    83.79500  2939.10000   0.
     0.08400  2959.57200   0.
     1.19600  2958.89800   0.
     2.30800  2958.22400   0.
     4.53000  2956.94200   0.
     5.64000  2956.33400   0.
     6.75000  2955.72600   0.
     7.86000  2955.11800   0.
    10.35750  2953.84750   0.
    11.74500  2953.18500   0.
    13.13250  2952.52250   0.
    15.90750  2951.24000   0.
    17.29500  2950.62000   0.
    18.68250  2950.00000   0.
    21.18200  2948.82200   0.
    22.29400  2948.26400   0.
    23.40600  2947.70600   0.
    24.51800  2947.14800   0.
    26.74000  2946.00600   0.
    27.85000  2945.42200   0.
    28.96000  2944.83800   0.
    30.07000  2944.25400   0.
    32.56750  2943.00000   0.
    33.95500  2942.33000   0.
    35.34250  2941.66000   0.
    38.11750  2940.39750   0.
    39.50500  2939.80500   0.
    40.89250  2939.21250   0.
    43.66750  2938.18250   0.
    45.05500  2937.74500   0.
    46.44250  2937.30750   0.
    49.22000  2936.51750   0.
    50.61000  2936.16500   0.
    52.00000  2935.81250   0.
    54.77750  2935.01750   0.
    56.16500  2934.57500   0.
    57.55250  2934.13250   0.
    60.32750  2933.25500   0.
    61.71500  2932.82000   0.
    63.10250  2932.38500   0.
    65.87750  2931.91500   0.
    67.26500  2931.88000   0.
    68.65250  2931.84500   0.
    71.43000  2931.69750   0.
    72.82000  2931.58500   0.
    74.21000  2931.47250   0.
    76.98750  2931.44500   0.
    78.37500  2931.53000   0.
    79.76250  2931.61500   0.
    82.53750  2931.75500   0.
    83.92500  2931.81000   0.
     6.60134  2937.05984   0.
    20.80435  2932.52560   0.
     3.78758  2946.36592   0.
    15.48523  2940.98228   0.
    29.30091  2934.50364   0.
    23.90594  2939.46561   0.
    40.87322  2931.62711   0.
     1.03219  2951.87344   0.
    10.83406  2946.32292   0.
    20.42668  2943.42459   0.
    48.80952  2930.83467   0.
    35.50309  2935.49258   0.
     7.54365  2949.73854   0.
    28.57967  2939.84283   0.
    15.90963  2945.83181   0.
    44.30452  2933.27820   0.
    -0.12722  2955.42655   0.
    24.47411  2943.04615   0.
     4.45051  2952.86019   0.
    40.01017  2935.22543   0.
    52.75593  2931.58993   0.
    13.75183  2934.27842   0.
    32.31862  2938.44653   0.
     0.40990  2931.04902   0.
    19.20708  2946.27332   0.
    57.19103  2930.55709   0.
    -0.97178  2947.27328   0.
    19.39705  2939.49643   0.
    11.08068  2950.12444   0.
    32.86215  2930.47012   0.
     7.41320  2941.82707   0.
    13.76382  2948.77946   0.
    27.17579  2942.79365   0.
     7.27112  2952.68663   0.
     2.71547  2954.94653   0.
    22.91159  2945.17994   0.
     2.00816  2941.86911   0.
    24.73355  2934.79062   0.
    47.86753  2934.00196   0.
    50.62083  2933.29089   0.
    60.15732  2930.28185   0.
    37.65425  2937.53830   0.
    44.64836  2929.77041   0.
    10.93416  2939.02064   0.
     4.26476  2949.76242   0.
    36.78915  2931.78219   0.
     7.36345  2946.13476   0.
    30.92470  2941.06806   0.
     6.19921  2931.10091   0.
    35.16618  2938.51604   0.
    16.36294  2929.87801   0.
    13.43632  2943.77014   0.
    42.64967  2935.50406   0.
    26.89596  2931.23775   0.
     1.59760  2936.73753   0.
    17.19200  2948.13905   0.
    -0.61497  2957.60981   0.
    26.49360  2937.36117   0.
     9.56799  2951.50953   0.
    17.55858  2943.77119   0.
    55.26825  2932.33039   0.
    22.03247  2936.46128   0.
    16.10828  2937.24515   0.
    22.48452  2941.40733   0.
    20.86327  2946.43955   0.
    29.71126  2937.35408   0.
    32.14062  2935.59882   0.
    45.26358  2935.44707   0.
    29.19256  2942.39482   0.
    25.22337  2944.48902   0.
    25.77440  2940.40763   0.
     5.12787  2951.33100   0.
     9.72036  2943.07255   0.
     0.63027  2944.64860   0.
     5.15669  2954.13690   0.
    33.80274  2940.56791   0.
     1.57076  2956.41210   0.
     9.31000  2947.97928   0.
     9.87726  2933.53233   0.
    53.60824  2932.85261   0.
    40.63972  2936.89193   0.
    13.47285  2946.23828   0.
    37.68088  2934.75035   0.
    46.32767  2931.88185   0.
    18.64740  2941.16071   0.
    13.09413  2950.32980   0.
    18.01744  2935.92389   0.
     0.55332  2948.73049   0.
     5.35766  2947.55011   0.
    42.44669  2933.52960   0.
    57.75733  2932.24094   0.
    23.68300  2931.83870   0.
    19.94397  2947.74183   0.
    61.81887  2931.15328   0.
[...]
POINT_DATA      1414
CELL_DATA      2568
SCALARS Resistivity(ohm.m) double 1
LOOKUP_TABLE default
          1126.94032          1771.19002          2309.47538          1072.92955           517.74808          2251.52556          1337.89205          1528.10119          1724.00699          2085.02449           777.25732          2052.92566           601.27916          2300.60267          2272.91682          1914.96125          1616.74478           502.33455           417.61496          2392.99245          1248.30637          1934.26706          1281.02309           581.86108          1888.18175           464.58381           301.79022          2211.88942          2252.81277          2286.36034           439.07474           482.35517          1693.47556           411.77253           399.22577          1698.61897           746.45280           897.29236          1231.74830          1585.08014          1888.18305           694.67383           407.33259          2338.54269           329.96541           430.12457          2967.56615           819.40724           621.53114           955.92984          2577.53971          1888.02727          1010.14227          1626.25585          2209.97626           846.89564           366.12172          2257.61903           400.25438          1080.27621           527.73040          2139.14811           504.96018          1877.93457           297.51633          1633.94612          2123.85874          2034.42573           309.69364           634.58590           458.50123           802.37479          2083.48619           393.52633           376.10796          2993.71583          1442.64572           489.90181           398.44939          2770.27556          2616.57666          1469.17603           381.24076           428.75932          2062.85226           700.37286           341.48301          2150.11652           888.19052          1914.05756          1010.81184           342.91743          2266.56329           423.62401          1791.63869          2027.01253           579.61324          1218.29870          2188.65525           950.29366          1571.55312           506.99582           574.02569           714.53164          1084.24558          1751.95620           491.84919           931.21698          2108.59507          1306.47436           449.27435          1150.10752          2556.78069          1823.84382          2070.01283          1358.64406          1064.53621          1545.29894           391.96691           333.68021          2328.38787          1407.71303          3044.71240           684.89611           549.24944          2073.09364          2445.11272          3310.62771          1844.70088          1458.12615          2074.63538          1058.38727          1247.92678          2250.74109           801.15917          2897.71282           445.85980          1711.95335           947.55588          1417.44095          1626.25225           483.88030           550.58568          1374.62156          1686.51698           520.92967           407.25927          1494.80747          1957.50529           477.06713          2276.89478          1945.24208           902.68861           700.16856          2285.58684           345.12088          1632.42580           424.75660          2247.01817          1303.56932          1168.73632           468.62181          2377.05172           448.23145          2218.21288           550.33954          1481.10019          1829.08169          1978.05003          1757.12281           723.00223           738.09963           626.44969           302.84989           364.78314           942.07840           719.01217          3652.95483          2706.75302          1108.22690          2257.78694          1432.97539          2006.76706           671.82868           521.19845           895.52725           776.11648           571.58771           875.71113          2467.82405          1221.70242          2396.03877           511.53174          2627.76106           297.53378           437.61233          2555.78498          2086.01568          1221.60725           368.22249           347.60527           835.95479          1813.06747          1476.43566          1819.28021           990.87655          3979.33735          2251.67287           352.92080          2236.53028          1329.26216           551.75814           369.33321           358.44640           518.65694          1170.88223          2344.97321           464.89841          1232.29988           458.47119           889.34498          1327.85026          1076.29850           377.56981           605.46346           557.23433           446.32751           471.14614          1340.37551           330.37098          1063.11495          2028.65479          1425.86146          3029.06750          2359.58666          1676.41311          2398.84868          1445.18241          1402.59203          1380.29424          2579.58891           636.10587           882.82365           386.11070          2432.76283           317.88517          1879.86446           456.44989           503.28369          2146.76157           309.45889          2030.40083          1735.39311           591.85788          2012.70819           933.96617           638.37969           628.98803           658.07915          2969.85538           574.63294          2206.20147           522.71151           393.53812           402.38612          1649.09976           374.91436          2286.67443           816.18271          2279.58626          1003.93075          2108.81448          2465.76723          2212.43158           447.35925          1639.40983          2209.83492           466.92953           707.20379           654.30743           485.37752          1427.02434           321.57335           886.87150           908.22470          2316.24317           407.16080          2402.88376           601.14956           518.94228           946.92724           354.64782          2286.68451           571.18256          1958.40850          2284.86788          1441.99538           476.02704           408.31454           557.02856          1030.55759           393.09001          2479.39146          2546.44399           420.96798          1863.58827          1334.10851          1552.18073          1988.39154           447.31130           595.36288           578.91255           304.99638          2295.61952           783.40208           378.45362           481.77179          1163.84242          2838.44673           447.03415          3368.22986           363.89984           993.90552           506.52872           466.14618          1198.00321           422.91241          1441.91634           990.03857          2886.28435          1790.46856          2174.23199           447.60652          1588.10791           333.79034           355.00276           507.84011           562.79057          3241.49538           495.56344          2147.72459           478.39155          2125.39405           475.02862           514.26119          1837.47367          1183.29445          1165.09953           422.28264          2173.58216           505.44862          2447.19156           685.63524           429.77322           400.96822          2083.20534           449.87614          1594.88023           315.12131           352.63276           831.59336          1564.55600           885.30172           464.86816          1377.44235           450.64367           407.78204          2333.91715          1781.07197          2705.99656           480.15140          1333.55773          1429.41968          1022.02922           309.96491          2659.12201           365.02072           473.06322           449.99125          2032.90929          1377.36175           495.67932          1832.16595          2368.86902           323.95498          1377.02727           544.71556          1364.31103           384.29310          1516.52387           613.09029           321.53525          1467.31548          1413.30726           488.63808           806.57345           502.28143          1370.46152          1765.76816          1015.25649           557.68531           545.01785          1353.90173          1509.90291          1316.35082           787.16405           468.63207           859.49127          2274.40027          1665.04721          1517.79067          2175.74940          1015.30110           613.18332          1156.25386          2477.09001           680.19477           905.36453           677.36256          1758.21423           978.62975           343.48702          2188.93035          1428.86269          1280.79237           299.57457          1652.51408           554.50080          1425.53531           509.05029          1334.74973           509.01588           487.01345          1922.66279          1010.96546          1490.51109          1515.30125           635.66598          1929.85363          1324.70754          3658.69199           553.19258          1165.91382          2035.97626          1125.97016          1068.87435          1326.36223          1204.43308          4310.50391           761.81327          3393.98253          1583.64126          1514.38991          1234.15927          1703.92061           771.65221          2168.59328           830.93358          1368.90461           469.59516          1906.29501          1339.85857           789.60028          1342.39810          2179.43195           754.06435           862.97115          1197.44433          1731.85296          1672.88338           840.44231          1833.06678           834.89025           309.86784          1930.96314          4003.10699          1059.86420           385.14938          1526.22207           690.81111          1092.76810          1933.93452           437.90533           553.47920          2140.42340          2731.35409          1272.15478           416.90605           691.77927           732.07625          1289.34763          1151.06551          1018.92213          1570.80776           709.22062          1520.74365           683.23822          1032.83193          2594.25523          1824.12201           660.12533           381.66637           575.59784          1276.45026           701.65938          1217.56756          3760.74736          1262.16641           333.55814           417.24990          1280.01715          1195.83927           844.65651           367.91757          3254.83693          1457.79383           341.00480          3403.88155          2251.74854           455.14663          1407.68112          1251.20963          1036.85573          1199.12706          1044.16163           474.32070          1619.55723          1487.67968          1504.08087          1316.08416           612.74090          1763.46421           503.99100          1239.41896           505.50846           470.16888           639.95894          1737.42052          1086.02759           843.91924           491.02967           364.82832          1722.05735          1135.19284          4426.83934          4932.10920          3659.25764          2204.21552          2063.52538          2135.87024          3606.69703          5333.89171           640.54925          4746.64541           468.43408          1175.62620          1570.64073           548.17308          4124.74008          5297.25536          1346.97650           437.79989          1925.44262          2747.90379           823.44315           868.77879          1483.33906          4710.87852          1274.07059          2596.13843          1033.24578           502.65845          1692.64926          1527.96333           388.06830          3515.66892           513.92109          1324.24058          5586.79001          4313.61929          1812.28505          5868.10989           365.37784           833.56320           464.17757          1785.36907          2739.37569          1866.68777          2836.74635          1692.31700          2679.33934           820.29594          1588.05475          1364.52354          1863.70506          9027.50998          3813.87285           949.42075          5109.79608          3695.54831           863.48783           698.43642          5469.98231          2914.38994          4756.76969          5634.61850          1406.34685           872.41481           647.26806           483.93833           849.83847          4387.27293          1723.47729          1083.34890          1638.33429           410.43747          1211.44299          1733.58029          3982.87320           958.91566           853.06832           705.98224           791.20676          1598.96875          1384.65736           786.96970          3386.46508          2907.98492          3384.16829          3290.79955          6167.10148          3963.85253          2666.79407           544.81885          4741.95870          1212.17835          1693.01285           668.30176          1411.93868           906.69526           427.42284          6887.10302          5308.46994          1565.36289          1483.78998          2831.42268          2147.23232          3315.54731          3213.61365           944.81083          1193.36739           624.45885           806.06506           379.92160           530.15347           769.84233           566.39324          1881.32969          3903.84610          3473.96158          1553.22415          2137.76836          1370.12063          1518.50699          8014.88271          5247.78531          1909.56053           395.89932           591.79407          5358.80172           749.28458          4136.99468          4378.74558          1176.79267          2356.01008           667.35224           992.08510          1195.11625          2290.25390          2362.94741          2671.07303           592.75685           473.36580          1344.22798           427.52770           617.27665           405.21213          3723.02264          5021.60084           402.11175          3128.38058           887.89854          2701.41731          1459.37425           649.72154           669.22569           703.64882           632.01593          1840.88466           778.31716          1465.98339           736.55699          2679.02925          1793.51209          3666.72303          2907.50317           606.85700           635.94959           410.41442          3030.46357           745.11700           699.41683          1308.19708          2723.25049           716.90428           847.02824           548.71775          1299.78016           941.84271          1542.72140          1425.59336           606.16696           829.71915           783.94007          2698.16937          1928.44899          1317.25761          7455.85553          1172.52518           831.36769           914.70106          1403.91267          2396.24148          1569.22749          1633.60419          1539.35272          2833.16346           750.58418          7400.01972          1274.86759          2752.09731           789.37481          1344.34015          3671.47208          2890.47774           760.41533          1128.53713          3514.69096           445.92775           548.91808          1298.02303          3000.28043          5765.20985          1603.19513          7173.35338          1234.96104          1710.30877          1565.87620          1420.99092           450.10227           871.85489          2794.68337           699.23620          4059.85461           572.98640          2978.73489           819.48748           652.68408          1490.10418          2153.71401          2967.36370          4824.32752          2827.13447          1715.15059          1818.49338          1470.30798          5583.73140          7401.04600          1902.30782           976.49509          2951.33434           614.49583          1313.62007           863.79481          2631.32453          1347.25955          1140.82921           590.52206           600.81148          3814.68287           968.97540           770.94136          6039.75267          3931.76342          2600.47655          1287.02393          7638.53408           819.09014          2354.65970          2773.59018          2295.97825          1058.70677          3142.06791          5471.34332          1736.17722           419.36534           783.85060           871.36343          1721.00576          1821.86246           657.15948           721.60529          6508.36335           817.16224          1079.96503          2052.73160          4205.55233          5696.44561           426.22324          1311.92526           901.76596          1056.88373          1822.16340           755.50707           841.53651          1533.24621           819.64623           530.48586           380.00429           835.53766          3000.64965           473.48138          2976.03461          1659.55064          2001.45981          1411.30345          1885.81468          1594.53685           391.74889          3868.79840          1487.30857          1832.80650          1839.19734          2134.95948          5974.13763           937.98449          5691.58459           622.13313           710.03017          1608.19425          1376.82503          7553.97947          2640.94721           881.76791          1784.13777          4119.55984          3602.84465           691.43547          4543.39725          1456.05661          3141.52154          1145.52867          3500.38353          3794.98151           499.12547          3442.41815          3853.83533          2504.78563          5552.56315           856.33116           817.93104          1362.85794          2348.47197           409.90101          8727.73951          3667.14776           724.13777          1786.45040          1684.93953          2174.41913           787.98079          1322.12090         12454.42304           691.23551          2448.26903          1277.52394           452.30492           779.30762          2609.43264          5535.56182          5887.34278          1491.40355          2636.63521          2614.04220          4734.84543           834.28335          1347.01515          2029.00713          1777.41774          5573.23440           627.40034          1356.52095          2716.40671           855.48994          4073.91222          2208.86462          7000.99541          2038.35284          1001.40432          1313.26849           608.62875          5387.40527          7405.06961          1799.92402           326.08656           374.73241           817.40737           884.49252          6470.64272          1591.79589          2190.07225          3242.04715          2624.97677          5593.19220          5595.98452           376.58048           684.54403           801.63638          1249.95005           645.73243          4338.91027          3989.38563          1331.14491           641.14235          1143.88817          2184.49775          3721.18903          2446.87575          2140.60029           840.89786          4283.01580          7486.21792           435.21461           695.67998          1693.78278          7689.64564          1800.29430          3135.46804          5108.91617           680.77729          1768.59545          4710.92738           622.74724          1507.97672          1030.18889          5315.05648           915.84600          1741.03738          2949.80232          5628.26754          4728.36758          6231.74732          4818.42760          4415.74360          1962.85851           865.90488          3431.68432          9683.58064           548.98767          2635.35829          2578.51116           337.70624          2566.18951          3389.84055          2510.37051           492.73014          4175.33223           808.53791          3561.18975          4420.70631          1944.37562           803.56051          3203.50728          3405.41966          4969.10790          6280.92532          5686.79447           688.52616           622.37261          1220.06092          4885.11481          1166.09386          3045.11376           846.77587           681.155