# vtk DataFile Version 3.0
Output from R2
ASCII
DATASET UNSTRUCTURED_GRID
POINTS       1414 double
     0.00000  2968.10000   0.
     1.54000  2966.60000   0.
     3.08000  2964.90000   0.
     4.61000  2964.10000   0.
     6.15000  2963.30000   0.
     7.69000  2962.60000   0.
     9.23000  2961.50000   0.
    10.76000  2960.70000   0.
    12.30000  2960.00000   0.
    13.84000  2959.30000   0.
    15.38000  2958.70000   0.
    16.91000  2958.10000   0.
    18.45000  2957.30000   0.
    19.99000  2956.60000   0.
    21.52000  2955.80000   0.
    23.06000  2955.00000   0.
    24.60000  2954.30000   0.
    26.14000  2953.50000   0.
    27.68000  2952.80000   0.
    29.21000  2951.90000   0.
    30.75000  2951.10000   0.
    32.29000  2950.20000   0.
    33.83000  2949.50000   0.
    35.36000  2948.70000   0.
    36.90000  2948.10000   0.
    38.44000  2947.30000   0.
    39.98000  2946.70000   0.
    41.51000  2946.10000   0.
    43.05000  2945.50000   0.
    44.59000  2945.10000   0.
    46.13000  2944.50000   0.
    47.66000  2944.10000   0.
    49.20000  2943.60000   0.
    50.74000  2943.40000   0.
    52.28000  2943.00000   0.
    53.81000  2942.50000   0.
    55.35000  2942.10000   0.
    56.89000  2941.60000   0.
    58.43000  2941.00000   0.
    59.96000  2940.60000   0.
    61.50000  2940.10000   0.
    63.04000  2939.50000   0.
    64.58000  2939.10000   0.
    66.11000  2939.20000   0.
    67.65000  2939.20000   0.
    69.19000  2939.10000   0.
    70.73000  2938.90000   0.
    72.26000  2938.60000   0.
    73.80000  2938.30000   0.
    75.34000  2938.50000   0.
    76.88000  2938.70000   0.
    78.41000  2938.60000   0.
    79.95000  2938.80000   0.
    81.49000  2938.90000   0.
    83.03000  2939.10000   0.
    84.56000  2939.10000   0.
     3.42000  2957.55000   0.
     8.97000  2954.51000   0.
    14.52000  2951.86000   0.
    20.07000  2949.38000   0.
    25.63000  2946.59000   0.
    31.18000  2943.67000   0.
    36.73000  2940.99000   0.
    42.28000  2938.62000   0.
    47.83000  2936.87000   0.
    53.39000  2935.46000   0.
    58.94000  2933.69000   0.
    64.49000  2931.95000   0.
    70.04000  2931.81000   0.
    75.60000  2931.36000   0.
    81.15000  2931.70000   0.
     0.51333  2967.60000   0.
     1.02667  2967.10000   0.
     2.05333  2966.03333   0.
     2.56667  2965.46667   0.
     3.59000  2964.63333   0.
     4.10000  2964.36667   0.
     5.12333  2963.83333   0.
     5.63667  2963.56667   0.
     6.66333  2963.06667   0.
     7.17667  2962.83333   0.
     8.20333  2962.23333   0.
     8.71667  2961.86667   0.
     9.74000  2961.23333   0.
    10.25000  2960.96667   0.
    11.27333  2960.46667   0.
    11.78667  2960.23333   0.
    12.81333  2959.76667   0.
    13.32667  2959.53333   0.
    14.35333  2959.10000   0.
    14.86667  2958.90000   0.
    15.89000  2958.50000   0.
    16.40000  2958.30000   0.
    17.42333  2957.83333   0.
    17.93667  2957.56667   0.
    18.96333  2957.06667   0.
    19.47667  2956.83333   0.
    20.50000  2956.33333   0.
    21.01000  2956.06667   0.
    22.03333  2955.53333   0.
    22.54667  2955.26667   0.
    23.57333  2954.76667   0.
    24.08667  2954.53333   0.
    25.11333  2954.03333   0.
    25.62667  2953.76667   0.
    26.65333  2953.26667   0.
    27.16667  2953.03333   0.
    28.19000  2952.50000   0.
    28.70000  2952.20000   0.
    29.72333  2951.63333   0.
    30.23667  2951.36667   0.
    31.26333  2950.80000   0.
    31.77667  2950.50000   0.
    32.80333  2949.96667   0.
    33.31667  2949.73333   0.
    34.34000  2949.23333   0.
    34.85000  2948.96667   0.
    35.87333  2948.50000   0.
    36.38667  2948.30000   0.
    37.41333  2947.83333   0.
    37.92667  2947.56667   0.
    38.95333  2947.10000   0.
    39.46667  2946.90000   0.
    40.49000  2946.50000   0.
    41.00000  2946.30000   0.
    42.02333  2945.90000   0.
    42.53667  2945.70000   0.
    43.56333  2945.36667   0.
    44.07667  2945.23333   0.
    45.10333  2944.90000   0.
    45.61667  2944.70000   0.
    46.64000  2944.36667   0.
    47.15000  2944.23333   0.
    48.17333  2943.93333   0.
    48.68667  2943.76667   0.
    49.71333  2943.53333   0.
    50.22667  2943.46667   0.
    51.25333  2943.26667   0.
    51.76667  2943.13333   0.
    52.79000  2942.83333   0.
    53.30000  2942.66667   0.
    54.32333  2942.36667   0.
    54.83667  2942.23333   0.
    55.86333  2941.93333   0.
    56.37667  2941.76667   0.
    57.40333  2941.40000   0.
    57.91667  2941.20000   0.
    58.94000  2940.86667   0.
    59.45000  2940.73333   0.
    60.47333  2940.43333   0.
    60.98667  2940.26667   0.
    62.01333  2939.90000   0.
    62.52667  2939.70000   0.
    63.55333  2939.36667   0.
    64.06667  2939.23333   0.
    65.34500  2939.15000   0.
    66.88000  2939.20000   0.
    68.42000  2939.15000   0.
    69.70333  2939.03333   0.
    70.21667  2938.96667   0.
    71.24000  2938.80000   0.
    71.75000  2938.70000   0.
    72.77333  2938.50000   0.
    73.28667  2938.40000   0.
    74.31333  2938.36667   0.
    74.82667  2938.43333   0.
    75.85333  2938.56667   0.
    76.36667  2938.63333   0.
    77.64500  2938.65000   0.
    78.92333  2938.66667   0.
    79.43667  2938.73333   0.
    80.72000  2938.85000   0.
    82.00333  2938.96667   0.
    82.51667  2939.03333   0.
    83.79500  2939.10000   0.
     0.08400  2959.57200   0.
     1.19600  2958.89800   0.
     2.30800  2958.22400   0.
     4.53000  2956.94200   0.
     5.64000  2956.33400   0.
     6.75000  2955.72600   0.
     7.86000  2955.11800   0.
    10.35750  2953.84750   0.
    11.74500  2953.18500   0.
    13.13250  2952.52250   0.
    15.90750  2951.24000   0.
    17.29500  2950.62000   0.
    18.68250  2950.00000   0.
    21.18200  2948.82200   0.
    22.29400  2948.26400   0.
    23.40600  2947.70600   0.
    24.51800  2947.14800   0.
    26.74000  2946.00600   0.
    27.85000  2945.42200   0.
    28.96000  2944.83800   0.
    30.07000  2944.25400   0.
    32.56750  2943.00000   0.
    33.95500  2942.33000   0.
    35.34250  2941.66000   0.
    38.11750  2940.39750   0.
    39.50500  2939.80500   0.
    40.89250  2939.21250   0.
    43.66750  2938.18250   0.
    45.05500  2937.74500   0.
    46.44250  2937.30750   0.
    49.22000  2936.51750   0.
    50.61000  2936.16500   0.
    52.00000  2935.81250   0.
    54.77750  2935.01750   0.
    56.16500  2934.57500   0.
    57.55250  2934.13250   0.
    60.32750  2933.25500   0.
    61.71500  2932.82000   0.
    63.10250  2932.38500   0.
    65.87750  2931.91500   0.
    67.26500  2931.88000   0.
    68.65250  2931.84500   0.
    71.43000  2931.69750   0.
    72.82000  2931.58500   0.
    74.21000  2931.47250   0.
    76.98750  2931.44500   0.
    78.37500  2931.53000   0.
    79.76250  2931.61500   0.
    82.53750  2931.75500   0.
    83.92500  2931.81000   0.
     6.60134  2937.05984   0.
    20.80435  2932.52560   0.
     3.78758  2946.36592   0.
    15.48523  2940.98228   0.
    29.30091  2934.50364   0.
    23.90594  2939.46561   0.
    40.87322  2931.62711   0.
     1.03219  2951.87344   0.
    10.83406  2946.32292   0.
    20.42668  2943.42459   0.
    48.80952  2930.83467   0.
    35.50309  2935.49258   0.
     7.54365  2949.73854   0.
    28.57967  2939.84283   0.
    15.90963  2945.83181   0.
    44.30452  2933.27820   0.
    -0.12722  2955.42655   0.
    24.47411  2943.04615   0.
     4.45051  2952.86019   0.
    40.01017  2935.22543   0.
    52.75593  2931.58993   0.
    13.75183  2934.27842   0.
    32.31862  2938.44653   0.
     0.40990  2931.04902   0.
    19.20708  2946.27332   0.
    57.19103  2930.55709   0.
    -0.97178  2947.27328   0.
    19.39705  2939.49643   0.
    11.08068  2950.12444   0.
    32.86215  2930.47012   0.
     7.41320  2941.82707   0.
    13.76382  2948.77946   0.
    27.17579  2942.79365   0.
     7.27112  2952.68663   0.
     2.71547  2954.94653   0.
    22.91159  2945.17994   0.
     2.00816  2941.86911   0.
    24.73355  2934.79062   0.
    47.86753  2934.00196   0.
    50.62083  2933.29089   0.
    60.15732  2930.28185   0.
    37.65425  2937.53830   0.
    44.64836  2929.77041   0.
    10.93416  2939.02064   0.
     4.26476  2949.76242   0.
    36.78915  2931.78219   0.
     7.36345  2946.13476   0.
    30.92470  2941.06806   0.
     6.19921  2931.10091   0.
    35.16618  2938.51604   0.
    16.36294  2929.87801   0.
    13.43632  2943.77014   0.
    42.64967  2935.50406   0.
    26.89596  2931.23775   0.
     1.59760  2936.73753   0.
    17.19200  2948.13905   0.
    -0.61497  2957.60981   0.
    26.49360  2937.36117   0.
     9.56799  2951.50953   0.
    17.55858  2943.77119   0.
    55.26825  2932.33039   0.
    22.03247  2936.46128   0.
    16.10828  2937.24515   0.
    22.48452  2941.40733   0.
    20.86327  2946.43955   0.
    29.71126  2937.35408   0.
    32.14062  2935.59882   0.
    45.26358  2935.44707   0.
    29.19256  2942.39482   0.
    25.22337  2944.48902   0.
    25.77440  2940.40763   0.
     5.12787  2951.33100   0.
     9.72036  2943.07255   0.
     0.63027  2944.64860   0.
     5.15669  2954.13690   0.
    33.80274  2940.56791   0.
     1.57076  2956.41210   0.
     9.31000  2947.97928   0.
     9.87726  2933.53233   0.
    53.60824  2932.85261   0.
    40.63972  2936.89193   0.
    13.47285  2946.23828   0.
    37.68088  2934.75035   0.
    46.32767  2931.88185   0.
    18.64740  2941.16071   0.
    13.09413  2950.32980   0.
    18.01744  2935.92389   0.
     0.55332  2948.73049   0.
     5.35766  2947.55011   0.
    42.44669  2933.52960   0.
    57.75733  2932.24094   0.
    23.68300  2931.83870   0.
    19.94397  2947.74183   0.
    61.81887  2931.15328   0.
[...]
POINT_DATA      1414
CELL_DATA      2568
SCALARS Resistivity(ohm.m) double 1
LOOKUP_TABLE default
          1107.73854          1640.84385          2099.19798          1072.87315           539.87198          2091.51316          1383.20297          1541.55024          1592.85362          1916.94371           805.20696          1899.28786           615.09581          2397.03456          2363.22248          1832.20024          1487.39359           427.39085           500.20957          2357.58971          1283.26667          1798.21103          1187.00986           641.68307          1797.44867           499.25631           268.13151          2077.30809          2293.72333          2078.29897           525.79397           509.86438          1562.63623           428.84722           364.85172          1750.26482           722.39317           966.30886          1148.23758          1657.85520          1793.39585           712.59065           472.17319          2440.48792           341.88168           442.18953          3153.66575           856.95398           637.28153           938.98280          2727.40144          1807.45364          1025.25038          1496.82224          2140.71910           933.69222           365.65589          2053.11672           444.49571          1084.40639           559.88657          2157.79958           417.22388          1769.07700           275.49124          1491.09321          2029.59652          1870.64510           296.94311           745.55149           491.37921           778.83442          2082.52326           404.88576           310.41537          3176.53392          1335.71656           433.32687           325.17468          2960.65980          2788.96015          1466.87990           427.09585           459.14992          2044.47486           810.34805           342.10226          2148.52371           867.03140          1761.00463          1042.99491           368.49178          2074.95557           347.64876          1852.14841          2001.75972           530.63214          1189.80490          2238.76749          1003.37927          1441.28566           579.84722           679.27275           745.47157          1037.27171          1634.61624           537.14472           961.09602          2073.94190          1257.63215           365.96132          1159.52721          2707.62681          1676.40378          2053.14503          1226.18153          1065.19532          1414.27943           462.04146           323.61054          2232.83225          1301.35654          3225.78744           770.63571           503.28267          1989.31266          2565.02534          3465.99999          1707.25042          1495.45319          1935.55534          1058.53509          1149.74797          2310.56029           855.88797          3076.09370           362.77802          1592.16257          1003.33806          1277.60852          1493.07779           551.36661           660.19147          1409.66178          1560.16925           609.20625           474.93769          1370.51709          1876.37766           536.95124          2092.31581          1888.56419           947.10805           697.07783          2279.11765           286.60337          1588.33902           420.19490          2307.94435          1192.20459          1155.46031           549.92228          2438.67303           489.82515          2027.53463           562.30815          1540.58253          1815.73301          1910.37685          1640.96717           730.34796           803.84129           736.88073           279.56117           415.00194           940.33974           832.75963          3801.10968          2867.15657          1107.28366          2190.61011          1401.51590          1881.96247           775.23118           575.31749           969.91321           883.52306           690.16033           877.88994          2621.15076          1134.91848          2527.71950           620.37844          2809.13492           279.51568           529.93108          2723.74225          1925.56072          1167.25144           428.15430           285.26258           821.75776          1671.46735          1345.98279          1777.38850          1026.89936          4107.04588          2124.01285           400.77421          2056.14237          1221.77612           641.87351           430.58931           339.91606           597.07332          1130.62242          2460.54129           493.42962          1181.23452           555.80844           874.72135          1267.04838          1084.87346           344.48459           669.86394           667.74710           370.54061           567.54045          1207.90318           335.86598          1060.88387          1979.58982          1312.11641          3206.44229          2395.19581          1600.08978          2480.49094          1395.53960          1325.23780          1271.22338          2754.69987           674.45448           960.71474           415.03159          2567.17299           270.25298          1738.53869           510.84884           415.99973          1968.47317           263.97833          1937.64829          1625.00783           712.93167          1909.02108           979.44525           648.05238           751.16650           729.57059          3135.65111           586.14953          2019.65516           463.02133           443.97297           455.09506          1550.48202           362.12885          2090.02533           912.28317          2132.85246          1003.55312          1970.70057          2565.70781          2122.12182           472.90141          1504.21111          2054.63522           455.84542           693.84853           662.18595           451.30212          1294.06736           281.99354           948.47138           925.07898          2105.99271           488.12586          2429.67806           647.06711           449.50329           939.86624           305.65766          2342.36316           672.65858          1857.63623          2182.32405          1346.81123           569.96117           450.70173           677.34608          1026.22277           457.56719          2584.44289          2707.81238           421.81388          1777.95134          1220.11262          1421.33781          1939.03056           370.07356           711.97101           598.99883           300.77750          2131.43979           790.12454           332.65988           516.69112          1159.87571          2987.87799           482.75714          3539.08750           392.34063           977.01521           433.59503           569.49541          1128.78605           476.81430          1303.78933          1022.08596          3071.75273          1652.49411          2027.74009           519.92397          1488.54235           351.99005           398.69091           620.39370           633.40335          3415.40451           567.67551          2129.30525           391.42483          1997.12216           463.10193           613.95399          1744.79027          1161.05275          1089.54995           466.98358          2103.16828           426.77775          2593.67900           804.95524           361.44240           480.87006          2031.92321           525.13431          1480.87116           323.94337           393.68540           829.90407          1427.86387           913.78982           529.21561          1255.53509           497.90517           352.86631          2196.09510          1652.47083          2849.74435           438.04520          1212.83829          1307.06690          1018.87485           304.11663          2835.90987           402.59946           482.09915           431.99499          1982.52240          1263.84968           403.45622          1732.36574          2462.13386           268.56004          1251.48292           600.34315          1319.73963           453.58693          1434.34938           714.16919           341.40668          1333.14186          1475.81516           410.91030           822.06448           575.57927          1374.73326          1655.44701          1024.12933           579.10551           633.99562          1257.67269          1360.34270          1233.26839           886.48518           513.46024           946.45144          2128.80921          1531.51162          1408.40237          2196.93675          1019.29550           662.23561          1172.53818          2555.53541           678.27186           913.92397           721.06654          1623.98508           988.72487           384.35253          2162.92012          1356.04356          1218.25014           290.10053          1652.40800           591.86860          1300.16595           479.76397          1253.84253           459.27207           404.43791          1945.04180          1037.97785          1363.87959          1399.53000           659.02193          1865.96120          1341.35724          3785.26049           625.82988          1118.80394          2050.18444          1089.78187          1079.44156          1201.80516          1140.63921          4465.33641           870.18460          3549.17018          1456.02871          1488.93705          1243.29669          1675.20645           854.79261          2206.26900           926.39033          1312.82992           429.11226          1789.81127          1241.34567           894.64678          1325.06400          2006.94905           852.30343           874.30317          1187.43645          1746.20693          1544.32093           812.13614          1713.58647           903.41448           296.04868          1802.77894          4162.93012          1061.59694           424.66393          1453.97914           752.24175          1098.11583          1921.08054           532.79088           530.30249          1968.60435          2918.75145          1254.02419           345.57296           680.24679           811.70368          1200.07177          1142.99845          1035.10463          1428.90998           824.58551          1376.45960           797.54643          1055.49931          2708.26925          1714.47530           676.92647           319.67026           610.69560          1222.39650           808.10811          1179.95159          3942.80700          1191.26279           365.09296           503.95468          1253.93169          1160.46216           901.02180           409.33623          3435.95305          1310.33706           373.91914          3587.28220          2260.05066           424.12354          1312.28727          1176.29445          1055.19442          1183.04220          1062.28881           559.45129          1536.37320          1347.42860          1366.78702          1312.20755           733.37368          1663.95173           427.71292          1240.37750           588.49417           425.35514           756.49223          1596.15285          1089.36418           934.80352           430.05714           397.31070          1582.74849          1118.17225          4067.55971          4141.53378          3334.41571          2121.49708          2074.32890          2111.29831          3559.94553          5003.43372           659.67870          4443.74529           467.10587          1146.51660          1431.12462           674.52915          3434.81487          4797.67158          1316.98567           459.65233          1967.25565          2827.63277           789.33928           831.47783          1528.76997          4489.05956          1469.48198          2256.18346           967.33994           630.92644          1428.69274          1637.67362           437.66863          3580.89082           517.66062          1434.10851          5391.02797          4057.55258          1798.16668          4733.76989           290.95518           786.49845           489.92368          1952.32992          2906.54561          1900.21286          3275.36479          1789.27142          2758.78822           789.80041          1542.76092          1425.14945          1930.29918          8004.99889          3502.36084           905.10095          4869.61566          3952.33510           849.21424           667.74811          5225.24937          2930.10426          4421.29733          4827.99563          1507.42607           939.49925           618.39582           551.51276           873.68184          4442.90513          1746.07749          1076.73219          1742.90401           325.10334          1070.87904          1802.80276          3504.91364          1107.00007           877.88876           691.91244           850.69458          1620.83645          1489.95366           898.45769          3175.71788          2696.07298          3507.04846          3347.34043          5551.53780          4728.06913          2810.37920           645.74256          4459.31286          1301.23327          1748.93325           654.62341          1484.19478           971.69572           392.41210          6448.29790          5145.07248          1629.72611          1587.73170          2963.15788          2451.09781          3505.21942          2707.74545           985.45052          1355.23352           576.68360           782.91406           461.44739           525.12596           784.96862           644.01124          1970.82994          4642.38507          3606.82725          1628.22950          2333.76050          1373.52266          1657.60353          7964.93180          5350.15321          1957.58791           480.22307           585.06118          4924.26313           640.72352          4300.87912          4109.24664          1058.56013          2230.25946           703.13475           971.28615          1069.74835          2273.07297          2361.88196          2770.82843           652.45064           582.38717          1110.22759           364.03260           620.54353           441.11152          3508.74118          5231.06561           452.75534          3178.22539           827.52043          2744.27376          1196.80178           651.80167           627.27039           768.26708           672.63128          1958.34763           753.28510          1472.46479           681.85585          2513.09070          1904.12979          4373.25874          2892.75229           698.05739           559.41066           329.19164          3038.25483           728.91639           757.63545          1340.70407          2671.70752           682.99793           828.69379           547.61273          1351.57264          1047.53080          1765.37369          1483.90035           625.82594           778.35889           714.99900          2823.35171          1879.69577          1106.31573          7161.14735          1071.76402           924.77029           915.05341          1709.33725          2689.65478          1662.04493          1519.63936          1696.59342          2689.61183           601.78073          7603.12226          1516.09282          2898.00914           834.02853          1116.48948          4160.07162          2764.73986           789.58010          1169.86809          3261.12395           498.45326           488.19839          1296.33971          2892.82743          6252.38581          1546.30426          7101.43568          1441.66003          1753.87809          1659.63339          1162.32567           464.36058           777.32272          2840.64307           679.93547          4107.61586           653.35601          3395.89776           832.48354           775.06095          1399.26189          2071.96690          3005.33776          4948.93896          2877.23220          1474.50043          1805.01534          1325.50542          5405.88261          7657.61235          2001.64403          1046.21735          2981.99188           636.94854          1099.26799           870.46104          2902.41113          1107.13188           914.69002           579.08101           631.74005          3603.35775          1128.54787           774.22920          5925.54963          3912.76284          2149.28300          1382.85909          9135.48003           820.22657          2743.16958          3212.90169          2377.71899          1242.11475          2970.39863          5235.03160          1745.11681           445.64984           715.71331           855.90513          1981.20394          1805.41069           711.70505           752.46744          6516.26138           802.88366          1196.60620          1960.96398          3844.64673          6662.25202           507.50612          1298.13736           909.72099          1026.01537          2059.76672           798.70482           849.80711          1597.79039           822.15389           632.25241           466.16693           765.11918          3141.15463           496.76253          3149.18150          1676.08291          2079.31192          1387.57794          1698.15366          1702.41432           480.79921          4199.51484          1595.56278          1951.66570          2028.28987          2203.69829          7929.12334           905.39209          5313.50605           521.67407           677.23412          1627.29545          1121.93171          7605.23292          2791.18310           889.32635          1657.47758          4192.04396          3206.37827           597.82041          4992.94759          1561.88922          2765.23607          1056.38813          3545.09330          3849.47139           511.28896          3283.02119          3791.86732          2586.20140          6466.08776           844.48631           747.53505          1120.04989          2165.33418           446.04756          9436.54443          3827.99838           603.32856          1560.46594          1806.03012          2156.57162           765.81662          1103.59531         13607.70705           708.00832          2238.97910          1356.67248           530.12505           818.06395          2754.36369          5578.77894          6096.84519          1736.54014          2458.40206          2493.76183          4837.36687           726.30931          1432.37572          2179.00043          1936.94562          5809.82828           595.41120          1111.92652          2920.04239           883.50820          4116.71991          2496.19514          6565.41891          2809.46456          1295.50318          1052.16651           646.51011          6076.54379          7067.13178          2221.06963           285.71777           423.01226           803.85323           761.46184          6517.73076          1369.42927          1998.02509          3188.55018          2313.27707          5807.53480          6448.66098           380.71401           553.36994           833.98305          1287.07448           661.59213          4187.50943          3954.68062          1497.23146           685.37221          1052.04675          2259.89845          3776.47987          2239.38126          2270.57653           964.23080          4035.28005          7445.58623           485.15438           707.77843          1814.46811          6715.03797          1924.44370          2922.59188          4912.35273           745.18830          1939.56880          4165.95517           509.74762          1599.90485          1097.28658          5774.41610           935.85072          1836.63875          2974.57882          5109.04538          5123.57921          6003.94462          4747.63718          4368.33275          1703.24498           923.05016          3233.35416         10361.89056           660.35704          2809.44943          2821.03337           290.03318          2488.93185          3597.33904          2632.43801           469.78124          4612.30926           803.48553          3234.53457          4550.61198          1944.33136           746.42861          3330.23193          3605.98756          5693.11318          6487.83050          5450.27308           642.40863           664.27287          1304.48897          4746.27900          1011.27664          2786.50111           923.52598           587.230