# vtk DataFile Version 3.0
Output from R2
ASCII
DATASET UNSTRUCTURED_GRID
POINTS       1414 double
     0.00000  2968.10000   0.
     1.54000  2966.60000   0.
     3.08000  2964.90000   0.
     4.61000  2964.10000   0.
     6.15000  2963.30000   0.
     7.69000  2962.60000   0.
     9.23000  2961.50000   0.
    10.76000  2960.70000   0.
    12.30000  2960.00000   0.
    13.84000  2959.30000   0.
    15.38000  2958.70000   0.
    16.91000  2958.10000   0.
    18.45000  2957.30000   0.
    19.99000  2956.60000   0.
    21.52000  2955.80000   0.
    23.06000  2955.00000   0.
    24.60000  2954.30000   0.
    26.14000  2953.50000   0.
    27.68000  2952.80000   0.
    29.21000  2951.90000   0.
    30.75000  2951.10000   0.
    32.29000  2950.20000   0.
    33.83000  2949.50000   0.
    35.36000  2948.70000   0.
    36.90000  2948.10000   0.
    38.44000  2947.30000   0.
    39.98000  2946.70000   0.
    41.51000  2946.10000   0.
    43.05000  2945.50000   0.
    44.59000  2945.10000   0.
    46.13000  2944.50000   0.
    47.66000  2944.10000   0.
    49.20000  2943.60000   0.
    50.74000  2943.40000   0.
    52.28000  2943.00000   0.
    53.81000  2942.50000   0.
    55.35000  2942.10000   0.
    56.89000  2941.60000   0.
    58.43000  2941.00000   0.
    59.96000  2940.60000   0.
    61.50000  2940.10000   0.
    63.04000  2939.50000   0.
    64.58000  2939.10000   0.
    66.11000  2939.20000   0.
    67.65000  2939.20000   0.
    69.19000  2939.10000   0.
    70.73000  2938.90000   0.
    72.26000  2938.60000   0.
    73.80000  2938.30000   0.
    75.34000  2938.50000   0.
    76.88000  2938.70000   0.
    78.41000  2938.60000   0.
    79.95000  2938.80000   0.
    81.49000  2938.90000   0.
    83.03000  2939.10000   0.
    84.56000  2939.10000   0.
     3.42000  2957.55000   0.
     8.97000  2954.51000   0.
    14.52000  2951.86000   0.
    20.07000  2949.38000   0.
    25.63000  2946.59000   0.
    31.18000  2943.67000   0.
    36.73000  2940.99000   0.
    42.28000  2938.62000   0.
    47.83000  2936.87000   0.
    53.39000  2935.46000   0.
    58.94000  2933.69000   0.
    64.49000  2931.95000   0.
    70.04000  2931.81000   0.
    75.60000  2931.36000   0.
    81.15000  2931.70000   0.
     0.51333  2967.60000   0.
     1.02667  2967.10000   0.
     2.05333  2966.03333   0.
     2.56667  2965.46667   0.
     3.59000  2964.63333   0.
     4.10000  2964.36667   0.
     5.12333  2963.83333   0.
     5.63667  2963.56667   0.
     6.66333  2963.06667   0.
     7.17667  2962.83333   0.
     8.20333  2962.23333   0.
     8.71667  2961.86667   0.
     9.74000  2961.23333   0.
    10.25000  2960.96667   0.
    11.27333  2960.46667   0.
    11.78667  2960.23333   0.
    12.81333  2959.76667   0.
    13.32667  2959.53333   0.
    14.35333  2959.10000   0.
    14.86667  2958.90000   0.
    15.89000  2958.50000   0.
    16.40000  2958.30000   0.
    17.42333  2957.83333   0.
    17.93667  2957.56667   0.
    18.96333  2957.06667   0.
    19.47667  2956.83333   0.
    20.50000  2956.33333   0.
    21.01000  2956.06667   0.
    22.03333  2955.53333   0.
    22.54667  2955.26667   0.
    23.57333  2954.76667   0.
    24.08667  2954.53333   0.
    25.11333  2954.03333   0.
    25.62667  2953.76667   0.
    26.65333  2953.26667   0.
    27.16667  2953.03333   0.
    28.19000  2952.50000   0.
    28.70000  2952.20000   0.
    29.72333  2951.63333   0.
    30.23667  2951.36667   0.
    31.26333  2950.80000   0.
    31.77667  2950.50000   0.
    32.80333  2949.96667   0.
    33.31667  2949.73333   0.
    34.34000  2949.23333   0.
    34.85000  2948.96667   0.
    35.87333  2948.50000   0.
    36.38667  2948.30000   0.
    37.41333  2947.83333   0.
    37.92667  2947.56667   0.
    38.95333  2947.10000   0.
    39.46667  2946.90000   0.
    40.49000  2946.50000   0.
    41.00000  2946.30000   0.
    42.02333  2945.90000   0.
    42.53667  2945.70000   0.
    43.56333  2945.36667   0.
    44.07667  2945.23333   0.
    45.10333  2944.90000   0.
    45.61667  2944.70000   0.
    46.64000  2944.36667   0.
    47.15000  2944.23333   0.
    48.17333  2943.93333   0.
    48.68667  2943.76667   0.
    49.71333  2943.53333   0.
    50.22667  2943.46667   0.
    51.25333  2943.26667   0.
    51.76667  2943.13333   0.
    52.79000  2942.83333   0.
    53.30000  2942.66667   0.
    54.32333  2942.36667   0.
    54.83667  2942.23333   0.
    55.86333  2941.93333   0.
    56.37667  2941.76667   0.
    57.40333  2941.40000   0.
    57.91667  2941.20000   0.
    58.94000  2940.86667   0.
    59.45000  2940.73333   0.
    60.47333  2940.43333   0.
    60.98667  2940.26667   0.
    62.01333  2939.90000   0.
    62.52667  2939.70000   0.
    63.55333  2939.36667   0.
    64.06667  2939.23333   0.
    65.34500  2939.15000   0.
    66.88000  2939.20000   0.
    68.42000  2939.15000   0.
    69.70333  2939.03333   0.
    70.21667  2938.96667   0.
    71.24000  2938.80000   0.
    71.75000  2938.70000   0.
    72.77333  2938.50000   0.
    73.28667  2938.40000   0.
    74.31333  2938.36667   0.
    74.82667  2938.43333   0.
    75.85333  2938.56667   0.
    76.36667  2938.63333   0.
    77.64500  2938.65000   0.
    78.92333  2938.66667   0.
    79.43667  2938.73333   0.
    80.72000  2938.85000   0.
    82.00333  2938.96667   0.
    82.51667  2939.03333   0.
    83.79500  2939.10000   0.
     0.08400  2959.57200   0.
     1.19600  2958.89800   0.
     2.30800  2958.22400   0.
     4.53000  2956.94200   0.
     5.64000  2956.33400   0.
     6.75000  2955.72600   0.
     7.86000  2955.11800   0.
    10.35750  2953.84750   0.
    11.74500  2953.18500   0.
    13.13250  2952.52250   0.
    15.90750  2951.24000   0.
    17.29500  2950.62000   0.
    18.68250  2950.00000   0.
    21.18200  2948.82200   0.
    22.29400  2948.26400   0.
    23.40600  2947.70600   0.
    24.51800  2947.14800   0.
    26.74000  2946.00600   0.
    27.85000  2945.42200   0.
    28.96000  2944.83800   0.
    30.07000  2944.25400   0.
    32.56750  2943.00000   0.
    33.95500  2942.33000   0.
    35.34250  2941.66000   0.
    38.11750  2940.39750   0.
    39.50500  2939.80500   0.
    40.89250  2939.21250   0.
    43.66750  2938.18250   0.
    45.05500  2937.74500   0.
    46.44250  2937.30750   0.
    49.22000  2936.51750   0.
    50.61000  2936.16500   0.
    52.00000  2935.81250   0.
    54.77750  2935.01750   0.
    56.16500  2934.57500   0.
    57.55250  2934.13250   0.
    60.32750  2933.25500   0.
    61.71500  2932.82000   0.
    63.10250  2932.38500   0.
    65.87750  2931.91500   0.
    67.26500  2931.88000   0.
    68.65250  2931.84500   0.
    71.43000  2931.69750   0.
    72.82000  2931.58500   0.
    74.21000  2931.47250   0.
    76.98750  2931.44500   0.
    78.37500  2931.53000   0.
    79.76250  2931.61500   0.
    82.53750  2931.75500   0.
    83.92500  2931.81000   0.
     6.60134  2937.05984   0.
    20.80435  2932.52560   0.
     3.78758  2946.36592   0.
    15.48523  2940.98228   0.
    29.30091  2934.50364   0.
    23.90594  2939.46561   0.
    40.87322  2931.62711   0.
     1.03219  2951.87344   0.
    10.83406  2946.32292   0.
    20.42668  2943.42459   0.
    48.80952  2930.83467   0.
    35.50309  2935.49258   0.
     7.54365  2949.73854   0.
    28.57967  2939.84283   0.
    15.90963  2945.83181   0.
    44.30452  2933.27820   0.
    -0.12722  2955.42655   0.
    24.47411  2943.04615   0.
     4.45051  2952.86019   0.
    40.01017  2935.22543   0.
    52.75593  2931.58993   0.
    13.75183  2934.27842   0.
    32.31862  2938.44653   0.
     0.40990  2931.04902   0.
    19.20708  2946.27332   0.
    57.19103  2930.55709   0.
    -0.97178  2947.27328   0.
    19.39705  2939.49643   0.
    11.08068  2950.12444   0.
    32.86215  2930.47012   0.
     7.41320  2941.82707   0.
    13.76382  2948.77946   0.
    27.17579  2942.79365   0.
     7.27112  2952.68663   0.
     2.71547  2954.94653   0.
    22.91159  2945.17994   0.
     2.00816  2941.86911   0.
    24.73355  2934.79062   0.
    47.86753  2934.00196   0.
    50.62083  2933.29089   0.
    60.15732  2930.28185   0.
    37.65425  2937.53830   0.
    44.64836  2929.77041   0.
    10.93416  2939.02064   0.
     4.26476  2949.76242   0.
    36.78915  2931.78219   0.
     7.36345  2946.13476   0.
    30.92470  2941.06806   0.
     6.19921  2931.10091   0.
    35.16618  2938.51604   0.
    16.36294  2929.87801   0.
    13.43632  2943.77014   0.
    42.64967  2935.50406   0.
    26.89596  2931.23775   0.
     1.59760  2936.73753   0.
    17.19200  2948.13905   0.
    -0.61497  2957.60981   0.
    26.49360  2937.36117   0.
     9.56799  2951.50953   0.
    17.55858  2943.77119   0.
    55.26825  2932.33039   0.
    22.03247  2936.46128   0.
    16.10828  2937.24515   0.
    22.48452  2941.40733   0.
    20.86327  2946.43955   0.
    29.71126  2937.35408   0.
    32.14062  2935.59882   0.
    45.26358  2935.44707   0.
    29.19256  2942.39482   0.
    25.22337  2944.48902   0.
    25.77440  2940.40763   0.
     5.12787  2951.33100   0.
     9.72036  2943.07255   0.
     0.63027  2944.64860   0.
     5.15669  2954.13690   0.
    33.80274  2940.56791   0.
     1.57076  2956.41210   0.
     9.31000  2947.97928   0.
     9.87726  2933.53233   0.
    53.60824  2932.85261   0.
    40.63972  2936.89193   0.
    13.47285  2946.23828   0.
    37.68088  2934.75035   0.
    46.32767  2931.88185   0.
    18.64740  2941.16071   0.
    13.09413  2950.32980   0.
    18.01744  2935.92389   0.
     0.55332  2948.73049   0.
     5.35766  2947.55011   0.
    42.44669  2933.52960   0.
    57.75733  2932.24094   0.
    23.68300  2931.83870   0.
    19.94397  2947.74183   0.
    61.81887  2931.15328   0.
[...]
POINT_DATA      1414
CELL_DATA      2568
SCALARS Resistivity(ohm.m) double 1
LOOKUP_TABLE default
          1227.19354          1713.32845          2269.63693          1172.14957           524.54392          2088.47569          1336.55894          1535.39349          1631.84394          1982.76410           809.51594          1972.58970           573.37256          2185.93055          2185.91197          1867.31109          1563.37887           425.21500           488.45519          2207.89836          1255.77783          1892.62568          1309.62350           645.24791          1801.70378           517.71522           241.38776          2045.67175          2213.33280          2193.61584           505.19085           516.10944          1645.32067           382.58112           317.76229          1639.42912           748.21209          1004.54774          1260.74735          1532.83515          1802.81129           694.19983           435.89953          2297.35383           304.72136           401.32647          2808.00388           872.86089           597.54158           989.67536          2365.62299          1805.52577          1110.96074          1560.19474          2170.15919           950.30570           317.88095          2128.24195           473.42849          1194.99657           533.55635          2036.31737           416.87788          1851.82327           246.22413          1542.12566          1976.59787          1938.26572           258.49390           699.06391           485.04445           819.72314          2011.40333           354.86689           285.81026          2992.50250          1500.99104           428.81617           318.74862          2600.14647          2422.46864          1506.50408           451.26637           414.07809          1964.28545           772.79695           298.70993          2095.95133           920.17793          1848.52066          1127.41955           333.47567          2123.62993           331.55610          1723.54638          1943.54512           545.98308          1339.63862          2103.01093          1062.18845          1578.69203           541.26878           630.84400           727.65376          1082.28637          1668.34146           518.50035          1018.47291          2049.24077          1422.60761           344.17620          1195.09530          2544.32664          1793.18487          2004.52270          1302.65400          1113.67539          1508.28270           438.02863           280.49337          2156.27001          1456.27199          2940.75561           736.94427           512.19280          1942.49461          2428.41630          3222.34495          1828.26524          1455.49292          1948.03235          1146.01050          1245.56878          2116.63129           861.89923          2932.14257           347.93750          1636.87270          1056.84211          1351.73741          1597.15481           521.97400           612.78954          1388.05716          1628.98798           564.71938           475.97189          1506.32841          1858.81717           577.26077          2191.09669          1863.98182           992.66196           693.07703          2098.85810           261.95101          1658.10708           385.55617          2198.27069          1290.88109          1288.26587           521.70413          2359.10638           488.82955          2082.63816           539.25666          1453.32015          1778.62957          1901.25703          1686.80060           726.47303           787.06463           692.88824           243.84744           424.93662          1000.69542           802.15800          3720.83034          2729.75400          1229.93956          2076.43152          1510.45906          1896.04169           738.24356           537.61377          1000.47268           867.95333           642.92338           922.40213          2367.34568          1236.04292          2272.24281           576.46014          2478.46918           246.85047           500.20449          2387.39199          1966.82265          1309.00542           414.11849           267.03503           864.90219          1800.25352          1441.85569          1783.60160          1095.59717          4104.47893          2186.42053           383.51232          2130.24534          1341.22833           593.46980           429.75128           293.89332           625.34398          1257.86511          2280.16390           475.17987          1331.81335           526.03613           927.93828          1437.15506          1196.21343           299.04511           623.44553           619.52404           368.32798           527.63395          1280.67203           321.25315          1136.95526          1956.98784          1456.16339          3102.36400          2160.94477          1707.73843          2200.76980          1536.09496          1501.24864          1409.68020          2472.10861           634.67281           981.89251           369.67938          2276.11378           241.35881          1811.23521           501.14311           416.47016          2026.13616           238.02232          1958.00271          1757.78028           666.44989          1897.74565          1036.45558           611.93096           707.88712           690.72999          3052.98683           551.68022          2082.43501           468.20404           404.51095           474.24947          1696.92049           313.67806          2165.75402           906.91964          2235.35835          1077.18533          2020.07030          2463.73312          2040.80586           438.53044          1623.66574          2117.44546           427.75505           699.15172           635.02845           432.08830          1380.49520           247.39269           985.59857           976.19422          2257.76769           465.67875          2200.84528           601.68385           457.81596           999.65831           269.68266          2125.20542           621.53773          1857.69495          2107.61982          1521.73720           535.46414           404.98831           631.43732          1068.40200           464.70995          2268.76058          2495.92453           388.07511          1783.52174          1327.21481          1528.70975          1915.54247           363.90747           664.18959           557.37573           266.33197          2148.48789           805.88522           291.52148           506.40265          1245.97569          2904.13290           452.46390          3430.54287           403.80338           998.50056           442.02096           536.29845          1240.96756           483.33885          1381.98244          1084.27844          2826.99662          1739.63672          2020.14289           476.31153          1650.59525           342.53054           403.93073           578.78273           585.42203          3255.55829           605.17650          2010.80378           385.53328          1980.80001           447.06176           570.87417          1758.04715          1305.59194          1160.87601           482.59448          2013.38730           429.30300          2376.46043           769.82980           326.49821           467.51670          1956.90369           505.39366          1646.64498           292.24924           366.79394           864.68918          1495.38864           955.17968           480.08193          1358.25876           447.33400           312.38826          2191.84400          1785.49446          2745.51077           420.28060          1304.49751          1425.91752          1082.11519           278.88906          2587.40821           418.15081           457.53398           411.15311          1924.80610          1390.20098           400.50433          1749.07926          2194.65518           248.63220          1345.26770           556.20888          1469.47307           451.75987          1598.79041           664.03990           320.48029          1419.65611          1390.60479           411.96717           840.97391           523.88901          1421.78289          1690.47252          1108.63437           544.55793           581.62336          1409.03648          1424.00746          1387.48594           881.30893           548.60505           964.13257          2108.76127          1677.62579          1579.51373          2050.34849          1100.51469           656.81727          1183.43898          2266.05066           665.85979           918.37138           689.68565          1764.91797          1061.52465           373.28936          2031.63048          1527.40720          1379.27237           258.80417          1637.58791           549.41684          1406.41867           476.02221          1417.83189           458.94481           404.10021          1856.99055          1125.71141          1485.54464          1564.60983           621.66220          1852.21892          1365.58045          3669.25585           640.85421          1236.38945          1988.26105          1191.54778          1188.54708          1284.26271          1262.52896          4536.93328           855.11911          3372.94752          1607.73424          1564.05897          1287.13239          1695.69759           847.68044          2100.51959           931.37280          1478.11165           415.66874          1818.09631          1383.16696           885.62388          1427.45788          2037.38218           837.71985           912.73925          1293.58947          1689.48141          1697.72434           863.71463          1758.57142           920.14711           269.91556          1841.54099          4184.54379          1154.41451           453.23185          1603.96020           721.48169          1121.43705          1868.84588           506.04750           533.63320          2011.46107          2536.81720          1370.13655           316.03790           676.72738           791.58965          1333.58835          1253.11487          1106.04957          1491.08492           795.42197          1443.08853           763.15774          1150.67833          2617.29759          1746.69178           648.00396           288.99768           565.94612          1385.83813           778.38695          1332.39264          3941.56828          1335.39928           344.91150           486.69776          1387.43598          1305.59114           922.93686           374.16605          3349.51910          1377.34387           346.40450          3544.09775          2081.46342           401.38761          1482.97919          1310.18985          1144.08577          1310.14714          1158.29726           514.43762          1674.12577          1421.24722          1442.93515          1386.59373           688.47748          1773.21607           423.62954          1310.43517           538.43903           410.21827           714.39912          1723.20067          1202.09096           941.58197           420.20769           358.49580          1695.45808          1245.21482          4135.21180          4130.53309          3451.47049          2110.16828          2114.66937          2135.09217          3637.05513          5116.89569           692.43009          4628.47299           403.16805          1124.78407          1502.97907           691.49299          3532.52200          5295.60617          1355.04128           447.25137          2159.60650          2670.86091           805.85988           889.49660          1445.62947          4607.21374          1502.45824          2270.19807           973.23602           650.09203          1422.13059          1532.18505           478.98249          3307.03073           522.25990          1386.14289          5462.12674          4156.67640          1919.47820          4682.57003           288.90802           826.12695           508.36306          1891.75784          2532.83574          1830.07207          3489.61345          1946.23813          2598.87710           784.17417          1694.65896          1334.57336          1846.29359          8345.88702          3791.81622           942.73239          5104.46425          4183.32960           843.96694           646.03909          5126.58755          2820.93484          4637.59256          4781.22850          1449.19721           929.84061           643.06723           531.86024           864.17396          4476.17015          1678.66804          1060.12660          1568.47739           332.36019          1104.68265          1802.98928          3645.57511          1116.20241           860.62422           677.23523           796.79876          1644.53553          1497.38942           894.97433          3249.20742          3012.07930          3196.78850          3356.93448          6211.87092          4165.24417          2533.35260           560.93468          4355.18551          1312.75905          1644.17102           692.96879          1385.50376           898.90314           380.78363          6095.72410          5362.69519          1513.22634          1676.47590          2678.42509          2423.58257          3361.60722          2767.64798           972.10900          1344.71462           560.87084           776.98039           386.48453           523.29311           843.60183           617.59301          2138.84101          4338.10986          3430.57754          1501.45228          2251.50187          1396.10881          1582.64779          8461.62695          5555.32784          1942.10022           401.25610           628.72916          5533.69763           703.42514          4146.79711          4187.88284          1077.63942          2469.33622           698.18830           932.91557          1079.26261          2467.39652          2569.41205          2803.51976           648.26533           496.61699          1171.66954           363.05957           644.10045           445.35692          3570.49220          5356.04193           490.13304          2946.35864           893.75399          2655.30665          1172.86926           639.71261           657.63764           703.32561           666.55520          2008.94854           795.53249          1436.97578           728.24079          2532.31394          1754.06143          4160.69255          2770.36633           624.68045           530.97131           334.67912          3095.14023           781.74354           765.21766          1258.23564          2784.73775           705.46796           881.23481           549.79759          1268.13386          1013.52695          1770.70915          1384.66039           614.63657           792.76960           688.57899          2543.13625          1963.58590          1256.51784          7766.23828          1070.01363          1004.92517           871.77643          1664.93197          2840.07461          1505.06297          1519.26376          1709.71606          2858.16653           728.17950          7404.64955          1429.71899          2575.81075           908.82648          1190.35847          4127.90825          2801.12277           797.69803          1106.33983          3381.89101           483.59912           534.54495          1300.66937          2838.22881          5730.99853          1477.95326          7590.58285          1476.66316          1811.98826          1502.68324          1152.55957           482.42350           821.77128          2751.44207           678.66989          4182.88285           657.00024          3408.64674           869.58964           700.24098          1516.07886          1921.98724          2881.89039          4727.91451          2732.50060          1388.38243          1772.69730          1383.68818          5763.36044          7853.87515          1900.25963          1084.99029          2934.35004           629.77085          1141.68208           927.42070          2764.73508          1143.63553          1018.07142           573.92871           618.42293          3624.35423          1167.58475           837.14120          5726.68841          3800.69483          2196.86073          1380.85661          7369.24070           862.72938          2687.23365          2923.56059          2348.64302          1305.43530          3057.02853          5300.65322          1658.89428           404.56469           695.47391           832.29914          1985.54234          1766.34453           712.80510           714.67756          5961.96447           782.23449          1221.94965          2027.06470          4154.02297          4798.84467           466.14618          1294.24826           908.68903          1031.59088          2096.24988           783.51316           804.77028          1563.79513           879.37146           649.17343           399.28447           799.67084          2811.10827           524.94694          2770.73715          1621.85595          2062.76652          1353.49778          1917.40593          1528.55258           405.26712          4469.07486          1673.51411          1884.90451          1982.82552          2246.77545          4880.93572           943.74804          5751.40473           579.34846           718.71001          1632.04416          1139.49421          8007.92635          2427.33198           975.75601          1817.56297          3994.99232          3399.99051           595.37056          5064.01442          1543.18609          2863.81221          1162.01881          3310.28121          3767.85812           510.56439          3437.06551          3885.80139          2451.63504          5090.96106           900.25044           783.58210          1135.39377          2395.49774           473.94430          8806.75402          3904.41567           617.53313          1769.84809          1825.96379          2111.69675           800.41343          1156.79012         12470.84475           710.48380          2381.31770          1305.00514           474.01147           852.45595          2615.04966          5148.99050          6143.46312          1587.75457          2363.15909          2749.21768          4973.04041           744.27617          1464.80515          2220.71299          1886.65063          5176.74666           578.04462          1139.51821          2924.82929           870.97784          4196.02881          2460.84880          7277.06168          2440.63541          1168.53551          1141.42184           631.63948          4728.47824          7763.43750          2117.36725           315.92640           364.55006           792.51324           834.93482          6869.00783          1305.05947          2128.64954          3179.82265          2465.98417          5880.22602          5526.48204           374.56996           625.85165           822.21055          1242.69581           683.72234          4109.73358          4004.79466          1440.06649           661.02378          1091.40359          2258.40958          3803.16398          2471.64412          2178.05602           994.48625          4212.07177          7311.02206           465.48362           683.66134          1698.65198          7828.62172          2066.10839          2933.18048          4476.26612           717.37957          1924.69391          4365.86895           554.53613          1451.47197           993.88659          5886.28877           885.97956          1673.67389          2946.10582          5309.50106          5376.12211          6487.58869          4775.88297          4534.39287          1744.08463           874.61891          3255.54041          9909.89051           675.46213          2667.35473          2775.34844           273.22051          2560.94843          3390.04513          2807.95527           435.99627          4588.28254           838.35594          3444.53671          4086.19904          2024.90369           797.53551          3282.90093          3493.54738          5132.75715          6687.95599          5832.64595           621.83727           656.47741          1408.80808          4585.23175          1135.36085          2913.02241           929.35351           608.570