# vtk DataFile Version 3.0
Output from R2
ASCII
DATASET UNSTRUCTURED_GRID
POINTS       1414 double
     0.00000  2968.10000   0.
     1.54000  2966.60000   0.
     3.08000  2964.90000   0.
     4.61000  2964.10000   0.
     6.15000  2963.30000   0.
     7.69000  2962.60000   0.
     9.23000  2961.50000   0.
    10.76000  2960.70000   0.
    12.30000  2960.00000   0.
    13.84000  2959.30000   0.
    15.38000  2958.70000   0.
    16.91000  2958.10000   0.
    18.45000  2957.30000   0.
    19.99000  2956.60000   0.
    21.52000  2955.80000   0.
    23.06000  2955.00000   0.
    24.60000  2954.30000   0.
    26.14000  2953.50000   0.
    27.68000  2952.80000   0.
    29.21000  2951.90000   0.
    30.75000  2951.10000   0.
    32.29000  2950.20000   0.
    33.83000  2949.50000   0.
    35.36000  2948.70000   0.
    36.90000  2948.10000   0.
    38.44000  2947.30000   0.
    39.98000  2946.70000   0.
    41.51000  2946.10000   0.
    43.05000  2945.50000   0.
    44.59000  2945.10000   0.
    46.13000  2944.50000   0.
    47.66000  2944.10000   0.
    49.20000  2943.60000   0.
    50.74000  2943.40000   0.
    52.28000  2943.00000   0.
    53.81000  2942.50000   0.
    55.35000  2942.10000   0.
    56.89000  2941.60000   0.
    58.43000  2941.00000   0.
    59.96000  2940.60000   0.
    61.50000  2940.10000   0.
    63.04000  2939.50000   0.
    64.58000  2939.10000   0.
    66.11000  2939.20000   0.
    67.65000  2939.20000   0.
    69.19000  2939.10000   0.
    70.73000  2938.90000   0.
    72.26000  2938.60000   0.
    73.80000  2938.30000   0.
    75.34000  2938.50000   0.
    76.88000  2938.70000   0.
    78.41000  2938.60000   0.
    79.95000  2938.80000   0.
    81.49000  2938.90000   0.
    83.03000  2939.10000   0.
    84.56000  2939.10000   0.
     3.42000  2957.55000   0.
     8.97000  2954.51000   0.
    14.52000  2951.86000   0.
    20.07000  2949.38000   0.
    25.63000  2946.59000   0.
    31.18000  2943.67000   0.
    36.73000  2940.99000   0.
    42.28000  2938.62000   0.
    47.83000  2936.87000   0.
    53.39000  2935.46000   0.
    58.94000  2933.69000   0.
    64.49000  2931.95000   0.
    70.04000  2931.81000   0.
    75.60000  2931.36000   0.
    81.15000  2931.70000   0.
     0.51333  2967.60000   0.
     1.02667  2967.10000   0.
     2.05333  2966.03333   0.
     2.56667  2965.46667   0.
     3.59000  2964.63333   0.
     4.10000  2964.36667   0.
     5.12333  2963.83333   0.
     5.63667  2963.56667   0.
     6.66333  2963.06667   0.
     7.17667  2962.83333   0.
     8.20333  2962.23333   0.
     8.71667  2961.86667   0.
     9.74000  2961.23333   0.
    10.25000  2960.96667   0.
    11.27333  2960.46667   0.
    11.78667  2960.23333   0.
    12.81333  2959.76667   0.
    13.32667  2959.53333   0.
    14.35333  2959.10000   0.
    14.86667  2958.90000   0.
    15.89000  2958.50000   0.
    16.40000  2958.30000   0.
    17.42333  2957.83333   0.
    17.93667  2957.56667   0.
    18.96333  2957.06667   0.
    19.47667  2956.83333   0.
    20.50000  2956.33333   0.
    21.01000  2956.06667   0.
    22.03333  2955.53333   0.
    22.54667  2955.26667   0.
    23.57333  2954.76667   0.
    24.08667  2954.53333   0.
    25.11333  2954.03333   0.
    25.62667  2953.76667   0.
    26.65333  2953.26667   0.
    27.16667  2953.03333   0.
    28.19000  2952.50000   0.
    28.70000  2952.20000   0.
    29.72333  2951.63333   0.
    30.23667  2951.36667   0.
    31.26333  2950.80000   0.
    31.77667  2950.50000   0.
    32.80333  2949.96667   0.
    33.31667  2949.73333   0.
    34.34000  2949.23333   0.
    34.85000  2948.96667   0.
    35.87333  2948.50000   0.
    36.38667  2948.30000   0.
    37.41333  2947.83333   0.
    37.92667  2947.56667   0.
    38.95333  2947.10000   0.
    39.46667  2946.90000   0.
    40.49000  2946.50000   0.
    41.00000  2946.30000   0.
    42.02333  2945.90000   0.
    42.53667  2945.70000   0.
    43.56333  2945.36667   0.
    44.07667  2945.23333   0.
    45.10333  2944.90000   0.
    45.61667  2944.70000   0.
    46.64000  2944.36667   0.
    47.15000  2944.23333   0.
    48.17333  2943.93333   0.
    48.68667  2943.76667   0.
    49.71333  2943.53333   0.
    50.22667  2943.46667   0.
    51.25333  2943.26667   0.
    51.76667  2943.13333   0.
    52.79000  2942.83333   0.
    53.30000  2942.66667   0.
    54.32333  2942.36667   0.
    54.83667  2942.23333   0.
    55.86333  2941.93333   0.
    56.37667  2941.76667   0.
    57.40333  2941.40000   0.
    57.91667  2941.20000   0.
    58.94000  2940.86667   0.
    59.45000  2940.73333   0.
    60.47333  2940.43333   0.
    60.98667  2940.26667   0.
    62.01333  2939.90000   0.
    62.52667  2939.70000   0.
    63.55333  2939.36667   0.
    64.06667  2939.23333   0.
    65.34500  2939.15000   0.
    66.88000  2939.20000   0.
    68.42000  2939.15000   0.
    69.70333  2939.03333   0.
    70.21667  2938.96667   0.
    71.24000  2938.80000   0.
    71.75000  2938.70000   0.
    72.77333  2938.50000   0.
    73.28667  2938.40000   0.
    74.31333  2938.36667   0.
    74.82667  2938.43333   0.
    75.85333  2938.56667   0.
    76.36667  2938.63333   0.
    77.64500  2938.65000   0.
    78.92333  2938.66667   0.
    79.43667  2938.73333   0.
    80.72000  2938.85000   0.
    82.00333  2938.96667   0.
    82.51667  2939.03333   0.
    83.79500  2939.10000   0.
     0.08400  2959.57200   0.
     1.19600  2958.89800   0.
     2.30800  2958.22400   0.
     4.53000  2956.94200   0.
     5.64000  2956.33400   0.
     6.75000  2955.72600   0.
     7.86000  2955.11800   0.
    10.35750  2953.84750   0.
    11.74500  2953.18500   0.
    13.13250  2952.52250   0.
    15.90750  2951.24000   0.
    17.29500  2950.62000   0.
    18.68250  2950.00000   0.
    21.18200  2948.82200   0.
    22.29400  2948.26400   0.
    23.40600  2947.70600   0.
    24.51800  2947.14800   0.
    26.74000  2946.00600   0.
    27.85000  2945.42200   0.
    28.96000  2944.83800   0.
    30.07000  2944.25400   0.
    32.56750  2943.00000   0.
    33.95500  2942.33000   0.
    35.34250  2941.66000   0.
    38.11750  2940.39750   0.
    39.50500  2939.80500   0.
    40.89250  2939.21250   0.
    43.66750  2938.18250   0.
    45.05500  2937.74500   0.
    46.44250  2937.30750   0.
    49.22000  2936.51750   0.
    50.61000  2936.16500   0.
    52.00000  2935.81250   0.
    54.77750  2935.01750   0.
    56.16500  2934.57500   0.
    57.55250  2934.13250   0.
    60.32750  2933.25500   0.
    61.71500  2932.82000   0.
    63.10250  2932.38500   0.
    65.87750  2931.91500   0.
    67.26500  2931.88000   0.
    68.65250  2931.84500   0.
    71.43000  2931.69750   0.
    72.82000  2931.58500   0.
    74.21000  2931.47250   0.
    76.98750  2931.44500   0.
    78.37500  2931.53000   0.
    79.76250  2931.61500   0.
    82.53750  2931.75500   0.
    83.92500  2931.81000   0.
     6.60134  2937.05984   0.
    20.80435  2932.52560   0.
     3.78758  2946.36592   0.
    15.48523  2940.98228   0.
    29.30091  2934.50364   0.
    23.90594  2939.46561   0.
    40.87322  2931.62711   0.
     1.03219  2951.87344   0.
    10.83406  2946.32292   0.
    20.42668  2943.42459   0.
    48.80952  2930.83467   0.
    35.50309  2935.49258   0.
     7.54365  2949.73854   0.
    28.57967  2939.84283   0.
    15.90963  2945.83181   0.
    44.30452  2933.27820   0.
    -0.12722  2955.42655   0.
    24.47411  2943.04615   0.
     4.45051  2952.86019   0.
    40.01017  2935.22543   0.
    52.75593  2931.58993   0.
    13.75183  2934.27842   0.
    32.31862  2938.44653   0.
     0.40990  2931.04902   0.
    19.20708  2946.27332   0.
    57.19103  2930.55709   0.
    -0.97178  2947.27328   0.
    19.39705  2939.49643   0.
    11.08068  2950.12444   0.
    32.86215  2930.47012   0.
     7.41320  2941.82707   0.
    13.76382  2948.77946   0.
    27.17579  2942.79365   0.
     7.27112  2952.68663   0.
     2.71547  2954.94653   0.
    22.91159  2945.17994   0.
     2.00816  2941.86911   0.
    24.73355  2934.79062   0.
    47.86753  2934.00196   0.
    50.62083  2933.29089   0.
    60.15732  2930.28185   0.
    37.65425  2937.53830   0.
    44.64836  2929.77041   0.
    10.93416  2939.02064   0.
     4.26476  2949.76242   0.
    36.78915  2931.78219   0.
     7.36345  2946.13476   0.
    30.92470  2941.06806   0.
     6.19921  2931.10091   0.
    35.16618  2938.51604   0.
    16.36294  2929.87801   0.
    13.43632  2943.77014   0.
    42.64967  2935.50406   0.
    26.89596  2931.23775   0.
     1.59760  2936.73753   0.
    17.19200  2948.13905   0.
    -0.61497  2957.60981   0.
    26.49360  2937.36117   0.
     9.56799  2951.50953   0.
    17.55858  2943.77119   0.
    55.26825  2932.33039   0.
    22.03247  2936.46128   0.
    16.10828  2937.24515   0.
    22.48452  2941.40733   0.
    20.86327  2946.43955   0.
    29.71126  2937.35408   0.
    32.14062  2935.59882   0.
    45.26358  2935.44707   0.
    29.19256  2942.39482   0.
    25.22337  2944.48902   0.
    25.77440  2940.40763   0.
     5.12787  2951.33100   0.
     9.72036  2943.07255   0.
     0.63027  2944.64860   0.
     5.15669  2954.13690   0.
    33.80274  2940.56791   0.
     1.57076  2956.41210   0.
     9.31000  2947.97928   0.
     9.87726  2933.53233   0.
    53.60824  2932.85261   0.
    40.63972  2936.89193   0.
    13.47285  2946.23828   0.
    37.68088  2934.75035   0.
    46.32767  2931.88185   0.
    18.64740  2941.16071   0.
    13.09413  2950.32980   0.
    18.01744  2935.92389   0.
     0.55332  2948.73049   0.
     5.35766  2947.55011   0.
    42.44669  2933.52960   0.
    57.75733  2932.24094   0.
    23.68300  2931.83870   0.
    19.94397  2947.74183   0.
    61.81887  2931.15328   0.
[...]
POINT_DATA      1414
CELL_DATA      2568
SCALARS Resistivity(ohm.m) double 1
LOOKUP_TABLE default
          1171.99589          1818.86161          2338.68712          1116.30881           506.32204          2279.64916          1370.09719          1557.84756          1708.60019          2119.85125           776.67294          2080.25684           572.75396          2303.07976          2261.62333          1929.59068          1647.10547           464.23251           461.26457          2424.42972          1284.72591          1970.90488          1321.44888           612.37959          1919.18431           489.18865           271.49609          2247.62734          2192.26651          2306.49601           479.91961           492.23285          1737.60926           401.72230           364.43075          1684.36185           748.78140           930.75609          1269.01250          1578.83485          1863.69370           685.19947           424.70452          2284.09687           318.84589           415.58954          2901.25833           825.29741           600.34524           978.65187          2615.02487          1906.06940          1037.43608          1644.32082          2205.31155           881.65812           346.96029          2278.72968           436.05042          1115.11694           510.02157          2151.99523           460.68145          1909.72439           272.31457          1620.87324          2166.86241          2078.85203           286.29056           670.10827           467.73375           809.60616          2070.83774           380.08419           331.27791          2823.19923          1497.71090           462.34641           350.31208          2744.70111          2635.10696          1509.46996           409.02655           421.04509          2080.19810           737.85895           323.52397          2101.84512           904.63776          1965.81095          1050.24237           339.27598          2288.46768           377.01306          1760.93199          2032.32170           559.75964          1264.53173          2183.47865           987.99275          1625.65113           515.67796           592.75352           706.93284          1068.57021          1748.57710           503.99675           950.87060          2090.76624          1357.67289           398.63992          1190.99302          2455.62070          1878.91382          2044.53637          1363.38302          1100.45093          1580.36378           416.22152           310.60404          2358.07104          1460.19472          2922.45164           692.56564           532.64299          2115.20747          2359.49101          3141.71008          1892.25041          1485.44332          2118.86521          1100.80766          1274.47881          2269.82033           809.03005          2723.78238           397.47350          1723.96986           988.23436          1419.18738          1673.44047           501.07601           575.85355          1410.68793          1722.09456           534.90137           452.82353          1545.30640          1993.90704           532.54427          2293.58982          1953.00900           922.81773           696.02481          2325.29225           302.48127          1670.15918           410.46014          2202.56304          1329.43285          1210.66434           498.77224          2285.77839           494.96926          2243.75158           514.20194          1495.55121          1826.82469          1946.83184          1787.91697           718.68283           741.61614           648.02894           275.22561           388.67819           963.69170           756.97126          3379.90548          2564.25648          1149.08419          2296.23093          1482.61518          2053.70315           689.95913           513.30357           935.96472           815.91924           603.14461           888.67676          2436.49359          1253.24597          2391.28987           547.79130          2606.67477           273.21575           472.63740          2559.64111          2127.69823          1269.48370           389.75773           303.45773           846.72145          1866.51110          1506.27461          1830.79825          1032.85285          3665.93044          2256.91077           365.94938          2251.23202          1367.66209           561.24369           397.15825           330.90276           579.11972          1216.43102          2308.56305           464.09624          1281.43694           497.00099           906.61645          1380.32683          1116.93205           343.41478           596.35775           592.41802           400.52576           503.75729          1341.36107           321.65635          1097.41411          2015.43242          1476.34217          2822.44598          2399.92812          1721.19415          2436.32035          1498.92095          1457.96373          1427.79984          2535.13336           620.03325           924.26939           382.39621          2443.33597           279.74988          1932.48346           495.74942           460.00332          2178.14401           272.77799          2033.52024          1785.47320           628.26883          2057.69909           960.44675           623.09283           664.16222           655.56343          2764.46070           535.56451          2230.26836           497.64871           402.24885           445.73673          1702.80589           349.75187          2308.65076           856.63846          2297.10479          1031.64529          2119.71737          2362.32233          2252.48901           439.14322          1692.07538          2218.35901           442.70432           705.48602           642.16673           453.09045          1443.64748           286.32211           912.94643           923.47379          2340.87567           439.00939          2442.93905           582.64715           483.38498           970.54432           315.03390          2314.81822           602.16805          2002.26283          2317.28858          1498.13949           507.49219           411.56285           593.62922          1062.23590           435.53628          2520.53011          2469.95143           414.15507          1865.06195          1365.15431          1595.24382          1969.67524           402.36583           632.00329           546.53325           286.64528          2318.85586           785.35424           339.36864           504.90094          1204.98011          2654.17771           446.45298          3126.17037           372.23155           978.89637           465.16900           505.16202          1237.11158           471.96871          1450.00853          1032.16659          2760.95889          1842.96030          2211.51631           466.95270          1645.07748           331.84949           371.89988           545.86105           557.74352          3031.65524           557.14516          2180.68282           432.00489          2167.26158           471.35566           538.83411          1850.84405          1228.90483          1153.07509           470.10682          2215.17176           467.94831          2399.85704           721.73096           382.28567           437.38432          2119.07179           487.41354          1653.49954           303.57767           359.21204           840.32197          1574.47082           898.36172           478.96739          1406.35688           455.86255           364.92197          2356.27565          1832.37566          2551.87570           447.63747          1353.25275          1470.20231          1053.80991           293.40391          2577.78789           380.57586           457.94938           438.70718          2064.05825          1419.91035           448.04417          1823.95593          2395.57648           282.84773          1398.77748           531.90949          1416.41212           420.10958          1573.14166           644.46820           317.92242          1487.00152          1434.34170           447.34137           810.05829           520.49419          1415.07335          1784.93159          1042.26975           523.68660           570.46159          1404.76709          1500.18435          1367.23671           818.44628           510.53715           898.43041          2301.89073          1723.05956          1575.49017          2198.30434          1043.06446           629.98301          1194.37477          2519.68404           674.23839           895.05440           666.96453          1813.44023          1001.75874           354.02067          2226.62719          1484.21687          1331.95041           279.61513          1670.05786           529.06312          1458.95154           499.53164          1387.42422           488.12896           444.82597          1895.62479          1044.47805          1535.67732          1572.47231           617.91219          1927.63046          1367.41591          3404.85637           601.22975          1209.04715          2009.91892          1166.93406          1105.72743          1337.77802          1247.27334          3965.31464           796.47612          3181.31705          1640.72689          1558.52084          1277.78864          1726.55767           789.09025          2148.69392           870.70232          1422.41549           447.00638          1953.16552          1387.95123           827.97742          1391.66635          2212.17685           778.44798           873.15347          1240.39671          1732.28500          1730.80928           849.92942          1877.42795           854.54037           289.86865          1980.47453          3678.37872          1090.97932           407.14264          1580.73501           687.19952          1127.45427          1918.58243           476.28858           549.81539          2176.15207          2738.32201          1319.12046           369.29920           689.63878           741.57177          1334.40331          1189.98415          1060.82169          1569.46203           742.37215          1519.10886           711.53911          1070.57598          2458.82460          1860.11990           646.74768           337.45685           549.47710          1327.43251           725.20242          1265.66931          3455.28566          1310.57837           336.37113           457.18551          1328.01953          1243.70588           859.97464           372.68935          3015.57145          1450.24151           342.92100          3137.90071          2287.69877           429.79886          1462.77626          1296.84154          1079.42439          1241.99002          1085.71326           499.81774          1671.48300          1493.92264          1516.23380          1363.08062           644.53105          1805.90895           462.31378          1284.60520           528.65526           441.76369           667.33118          1794.02129          1128.64290           884.88368           454.49364           364.07358          1776.79656          1180.44793          4021.89332          4125.59832          3416.57796          2206.44831          2033.61763          2139.60954          3337.17160          4993.42173           696.60405          4402.19275           393.58150          1133.02190          1504.56343           661.66451          3710.53326          4770.06554          1326.87170           445.99658          1993.81575          2843.74495           818.66359           835.51110          1412.93478          4486.73336          1398.18592          2271.11973           998.88361           617.97325          1518.88472          1513.32014           464.06642          3447.71334           565.13158          1433.38796          5375.58992          4197.05305          1868.10786          4717.62305           314.21621           824.74999           513.13809          2004.17688          2787.23304          1839.87239          2854.61807          1790.94389          2746.85393           799.28001          1607.33725          1385.21774          1786.12326          8446.44718          3751.64669           940.14141          4820.83253          3983.45867           797.72989           740.22730          4803.89743          2883.58365          4601.96235          4681.95122          1434.29257           903.54264           622.20052           530.03506           846.79377          4188.77118          1724.95472          1059.44918          1598.45483           352.73048          1146.26542          1767.28554          3585.33311          1061.95701           827.46523           709.27921           763.77778          1676.60764          1466.39101           863.03760          3285.81325          2908.70084          3288.86140          3408.54930          5999.10699          4222.54541          2666.71358           566.70974          4270.91213          1275.71268          1656.64393           725.23715          1369.14235           861.05024           373.26830          5839.08342          5025.21321          1499.13847          1581.92277          2906.25179          2314.86667          3404.24201          2948.57598           954.44818          1353.88539           587.65369           754.70668           403.77683           581.94961           836.49518           618.82319          1966.74197          4478.43991          3688.94450          1539.39963          2271.54246          1376.43618          1679.70122          8008.64540          4890.61049          1915.82598           414.12900           650.67346          4877.83311           670.01816          4199.48694          4324.09672          1113.29398          2426.37747           707.86119           938.40841          1121.08146          2379.65215          2474.62260          2586.94729           639.64261           509.15015          1254.17718           385.89066           626.56678           445.69194          3652.55940          5264.91064           468.52888          3039.87778           838.25956          2739.74685          1281.13756           612.53561           647.10962           704.17907           663.20273          1889.31678           761.28278          1457.97857           697.50496          2365.69824          1749.16635          3981.04955          2875.17496           597.77087           565.22773           355.32277          3165.16871           768.79952           767.00331          1346.11783          2674.99854           677.32354           870.54068           551.73380          1335.70259          1024.33036          1641.90393          1435.43845           623.53557           752.30410           720.82817          2762.75746          1891.31362          1138.71698          7618.93845          1104.15320           948.20302           935.47310          1652.49275          2345.05799          1549.34625          1636.29543          1660.81937          2827.99727           755.66001          6978.11483          1403.57529          2819.17000           872.16399          1267.78724          4019.83649          2882.61020           774.81478          1155.28270          3417.85334           472.43622           561.67861          1268.90587          2975.99324          5429.20998          1493.13973          6969.47753          1362.83828          1788.26802          1516.65278          1257.58975           454.05108           840.32297          2900.48414           699.91503          4164.52581           637.92157          3197.87767           865.48806           650.86798          1416.30356          1942.79797          3057.76212          5116.32457          2823.52438          1491.30544          1839.95442          1403.43428          5612.90060          7252.07671          1870.15032          1022.52454          2800.86940           635.86593          1217.30986           883.80936          2749.53324          1233.04215           941.32230           634.95435           621.43886          3867.30187          1088.10892           820.12715          6009.13802          4064.56858          2362.01584          1391.51310          7550.20079           840.58426          2634.92044          2855.59786          2339.30208          1205.34960          3119.18615          5437.77437          1789.09577           411.03378           726.97120           886.48471          1693.49791          1841.24873           701.19911           704.85993          6322.43999           784.44817          1168.82705          2031.01224          4156.37347          4936.26598           474.06211          1325.11880           891.25332          1062.48503          1774.84469           765.86784           854.66245          1491.28278           888.58148           615.09053           417.24390           805.31044          3044.95401           513.64246          2984.73258          1707.03205          2032.70934          1432.38776          1759.66413          1544.57130           422.83857          4341.15003          1595.93040          1823.90984          2061.48856          2157.05706          5187.63135           994.38192          5417.81747           615.44056           693.90276          1685.69006          1239.18775          7428.29339          2687.33772           949.17296          1798.99408          4373.96995          3356.29401           682.72003          4840.26967          1425.86654          2756.05398          1153.66565          3412.10640          3805.15678           546.04861          3465.94153          3845.85171          2637.92670          5535.46291           872.34711           813.10266          1229.76750          2396.73533           459.94730          8617.62410          3748.34564           664.53166          1616.73082          1778.44673          2212.41046           770.27155          1232.66321         12640.34720           740.90547          2276.83683          1320.18242           467.89309           803.00906          2628.48726          5152.48449          5890.33796          1552.07241          2372.86166          2665.34329          4376.66836           772.12337          1466.15730          2098.38004          1779.65014          5525.15277           604.67218          1232.65822          2742.88482           856.17273          4176.37955          2418.76845          6792.49745          2164.39644          1106.42203          1069.79483           627.84413          5245.71808          7238.45211          1887.47340           336.81914           385.88030           783.35512           791.60809          6178.82343          1398.76692          2256.47959          3267.78128          2441.68857          6174.91112          5702.50106           369.83392           670.03194           802.56551          1279.97020           681.08085          4278.86530          3792.17035          1308.59854           630.70577          1106.41464          2217.66373          3684.35807          2329.46991          2202.27767           939.16273          4158.81757          7460.22136           453.29536           666.04464          1668.18931          7714.98825          1969.48994          2973.18089          4724.37343           701.10649          1820.74351          4268.16897           573.45642          1498.50352           970.86202          5756.30858           930.07416          1697.77069          3011.92249          5383.94659          5222.78020          5930.77312          4664.06293          4479.47844          1868.61034           834.20301          3499.90400          9780.61615           646.11420          2697.38323          2809.84189           302.35637          2428.92975          3410.33539          2662.24248           463.34841          4527.06376           861.61211          3428.97230          4170.17726          1978.86912           787.87363          3288.99927          3491.39387          5330.16639          5971.82106          5367.68588           734.90416           660.33167          1351.20093          5046.93582          1028.32021          2699.67268           907.56527           630.159