# vtk DataFile Version 3.0
Output from R2
ASCII
DATASET UNSTRUCTURED_GRID
POINTS       1414 double
     0.00000  2968.10000   0.
     1.54000  2966.60000   0.
     3.08000  2964.90000   0.
     4.61000  2964.10000   0.
     6.15000  2963.30000   0.
     7.69000  2962.60000   0.
     9.23000  2961.50000   0.
    10.76000  2960.70000   0.
    12.30000  2960.00000   0.
    13.84000  2959.30000   0.
    15.38000  2958.70000   0.
    16.91000  2958.10000   0.
    18.45000  2957.30000   0.
    19.99000  2956.60000   0.
    21.52000  2955.80000   0.
    23.06000  2955.00000   0.
    24.60000  2954.30000   0.
    26.14000  2953.50000   0.
    27.68000  2952.80000   0.
    29.21000  2951.90000   0.
    30.75000  2951.10000   0.
    32.29000  2950.20000   0.
    33.83000  2949.50000   0.
    35.36000  2948.70000   0.
    36.90000  2948.10000   0.
    38.44000  2947.30000   0.
    39.98000  2946.70000   0.
    41.51000  2946.10000   0.
    43.05000  2945.50000   0.
    44.59000  2945.10000   0.
    46.13000  2944.50000   0.
    47.66000  2944.10000   0.
    49.20000  2943.60000   0.
    50.74000  2943.40000   0.
    52.28000  2943.00000   0.
    53.81000  2942.50000   0.
    55.35000  2942.10000   0.
    56.89000  2941.60000   0.
    58.43000  2941.00000   0.
    59.96000  2940.60000   0.
    61.50000  2940.10000   0.
    63.04000  2939.50000   0.
    64.58000  2939.10000   0.
    66.11000  2939.20000   0.
    67.65000  2939.20000   0.
    69.19000  2939.10000   0.
    70.73000  2938.90000   0.
    72.26000  2938.60000   0.
    73.80000  2938.30000   0.
    75.34000  2938.50000   0.
    76.88000  2938.70000   0.
    78.41000  2938.60000   0.
    79.95000  2938.80000   0.
    81.49000  2938.90000   0.
    83.03000  2939.10000   0.
    84.56000  2939.10000   0.
     3.42000  2957.55000   0.
     8.97000  2954.51000   0.
    14.52000  2951.86000   0.
    20.07000  2949.38000   0.
    25.63000  2946.59000   0.
    31.18000  2943.67000   0.
    36.73000  2940.99000   0.
    42.28000  2938.62000   0.
    47.83000  2936.87000   0.
    53.39000  2935.46000   0.
    58.94000  2933.69000   0.
    64.49000  2931.95000   0.
    70.04000  2931.81000   0.
    75.60000  2931.36000   0.
    81.15000  2931.70000   0.
     0.51333  2967.60000   0.
     1.02667  2967.10000   0.
     2.05333  2966.03333   0.
     2.56667  2965.46667   0.
     3.59000  2964.63333   0.
     4.10000  2964.36667   0.
     5.12333  2963.83333   0.
     5.63667  2963.56667   0.
     6.66333  2963.06667   0.
     7.17667  2962.83333   0.
     8.20333  2962.23333   0.
     8.71667  2961.86667   0.
     9.74000  2961.23333   0.
    10.25000  2960.96667   0.
    11.27333  2960.46667   0.
    11.78667  2960.23333   0.
    12.81333  2959.76667   0.
    13.32667  2959.53333   0.
    14.35333  2959.10000   0.
    14.86667  2958.90000   0.
    15.89000  2958.50000   0.
    16.40000  2958.30000   0.
    17.42333  2957.83333   0.
    17.93667  2957.56667   0.
    18.96333  2957.06667   0.
    19.47667  2956.83333   0.
    20.50000  2956.33333   0.
    21.01000  2956.06667   0.
    22.03333  2955.53333   0.
    22.54667  2955.26667   0.
    23.57333  2954.76667   0.
    24.08667  2954.53333   0.
    25.11333  2954.03333   0.
    25.62667  2953.76667   0.
    26.65333  2953.26667   0.
    27.16667  2953.03333   0.
    28.19000  2952.50000   0.
    28.70000  2952.20000   0.
    29.72333  2951.63333   0.
    30.23667  2951.36667   0.
    31.26333  2950.80000   0.
    31.77667  2950.50000   0.
    32.80333  2949.96667   0.
    33.31667  2949.73333   0.
    34.34000  2949.23333   0.
    34.85000  2948.96667   0.
    35.87333  2948.50000   0.
    36.38667  2948.30000   0.
    37.41333  2947.83333   0.
    37.92667  2947.56667   0.
    38.95333  2947.10000   0.
    39.46667  2946.90000   0.
    40.49000  2946.50000   0.
    41.00000  2946.30000   0.
    42.02333  2945.90000   0.
    42.53667  2945.70000   0.
    43.56333  2945.36667   0.
    44.07667  2945.23333   0.
    45.10333  2944.90000   0.
    45.61667  2944.70000   0.
    46.64000  2944.36667   0.
    47.15000  2944.23333   0.
    48.17333  2943.93333   0.
    48.68667  2943.76667   0.
    49.71333  2943.53333   0.
    50.22667  2943.46667   0.
    51.25333  2943.26667   0.
    51.76667  2943.13333   0.
    52.79000  2942.83333   0.
    53.30000  2942.66667   0.
    54.32333  2942.36667   0.
    54.83667  2942.23333   0.
    55.86333  2941.93333   0.
    56.37667  2941.76667   0.
    57.40333  2941.40000   0.
    57.91667  2941.20000   0.
    58.94000  2940.86667   0.
    59.45000  2940.73333   0.
    60.47333  2940.43333   0.
    60.98667  2940.26667   0.
    62.01333  2939.90000   0.
    62.52667  2939.70000   0.
    63.55333  2939.36667   0.
    64.06667  2939.23333   0.
    65.34500  2939.15000   0.
    66.88000  2939.20000   0.
    68.42000  2939.15000   0.
    69.70333  2939.03333   0.
    70.21667  2938.96667   0.
    71.24000  2938.80000   0.
    71.75000  2938.70000   0.
    72.77333  2938.50000   0.
    73.28667  2938.40000   0.
    74.31333  2938.36667   0.
    74.82667  2938.43333   0.
    75.85333  2938.56667   0.
    76.36667  2938.63333   0.
    77.64500  2938.65000   0.
    78.92333  2938.66667   0.
    79.43667  2938.73333   0.
    80.72000  2938.85000   0.
    82.00333  2938.96667   0.
    82.51667  2939.03333   0.
    83.79500  2939.10000   0.
     0.08400  2959.57200   0.
     1.19600  2958.89800   0.
     2.30800  2958.22400   0.
     4.53000  2956.94200   0.
     5.64000  2956.33400   0.
     6.75000  2955.72600   0.
     7.86000  2955.11800   0.
    10.35750  2953.84750   0.
    11.74500  2953.18500   0.
    13.13250  2952.52250   0.
    15.90750  2951.24000   0.
    17.29500  2950.62000   0.
    18.68250  2950.00000   0.
    21.18200  2948.82200   0.
    22.29400  2948.26400   0.
    23.40600  2947.70600   0.
    24.51800  2947.14800   0.
    26.74000  2946.00600   0.
    27.85000  2945.42200   0.
    28.96000  2944.83800   0.
    30.07000  2944.25400   0.
    32.56750  2943.00000   0.
    33.95500  2942.33000   0.
    35.34250  2941.66000   0.
    38.11750  2940.39750   0.
    39.50500  2939.80500   0.
    40.89250  2939.21250   0.
    43.66750  2938.18250   0.
    45.05500  2937.74500   0.
    46.44250  2937.30750   0.
    49.22000  2936.51750   0.
    50.61000  2936.16500   0.
    52.00000  2935.81250   0.
    54.77750  2935.01750   0.
    56.16500  2934.57500   0.
    57.55250  2934.13250   0.
    60.32750  2933.25500   0.
    61.71500  2932.82000   0.
    63.10250  2932.38500   0.
    65.87750  2931.91500   0.
    67.26500  2931.88000   0.
    68.65250  2931.84500   0.
    71.43000  2931.69750   0.
    72.82000  2931.58500   0.
    74.21000  2931.47250   0.
    76.98750  2931.44500   0.
    78.37500  2931.53000   0.
    79.76250  2931.61500   0.
    82.53750  2931.75500   0.
    83.92500  2931.81000   0.
     6.60134  2937.05984   0.
    20.80435  2932.52560   0.
     3.78758  2946.36592   0.
    15.48523  2940.98228   0.
    29.30091  2934.50364   0.
    23.90594  2939.46561   0.
    40.87322  2931.62711   0.
     1.03219  2951.87344   0.
    10.83406  2946.32292   0.
    20.42668  2943.42459   0.
    48.80952  2930.83467   0.
    35.50309  2935.49258   0.
     7.54365  2949.73854   0.
    28.57967  2939.84283   0.
    15.90963  2945.83181   0.
    44.30452  2933.27820   0.
    -0.12722  2955.42655   0.
    24.47411  2943.04615   0.
     4.45051  2952.86019   0.
    40.01017  2935.22543   0.
    52.75593  2931.58993   0.
    13.75183  2934.27842   0.
    32.31862  2938.44653   0.
     0.40990  2931.04902   0.
    19.20708  2946.27332   0.
    57.19103  2930.55709   0.
    -0.97178  2947.27328   0.
    19.39705  2939.49643   0.
    11.08068  2950.12444   0.
    32.86215  2930.47012   0.
     7.41320  2941.82707   0.
    13.76382  2948.77946   0.
    27.17579  2942.79365   0.
     7.27112  2952.68663   0.
     2.71547  2954.94653   0.
    22.91159  2945.17994   0.
     2.00816  2941.86911   0.
    24.73355  2934.79062   0.
    47.86753  2934.00196   0.
    50.62083  2933.29089   0.
    60.15732  2930.28185   0.
    37.65425  2937.53830   0.
    44.64836  2929.77041   0.
    10.93416  2939.02064   0.
     4.26476  2949.76242   0.
    36.78915  2931.78219   0.
     7.36345  2946.13476   0.
    30.92470  2941.06806   0.
     6.19921  2931.10091   0.
    35.16618  2938.51604   0.
    16.36294  2929.87801   0.
    13.43632  2943.77014   0.
    42.64967  2935.50406   0.
    26.89596  2931.23775   0.
     1.59760  2936.73753   0.
    17.19200  2948.13905   0.
    -0.61497  2957.60981   0.
    26.49360  2937.36117   0.
     9.56799  2951.50953   0.
    17.55858  2943.77119   0.
    55.26825  2932.33039   0.
    22.03247  2936.46128   0.
    16.10828  2937.24515   0.
    22.48452  2941.40733   0.
    20.86327  2946.43955   0.
    29.71126  2937.35408   0.
    32.14062  2935.59882   0.
    45.26358  2935.44707   0.
    29.19256  2942.39482   0.
    25.22337  2944.48902   0.
    25.77440  2940.40763   0.
     5.12787  2951.33100   0.
     9.72036  2943.07255   0.
     0.63027  2944.64860   0.
     5.15669  2954.13690   0.
    33.80274  2940.56791   0.
     1.57076  2956.41210   0.
     9.31000  2947.97928   0.
     9.87726  2933.53233   0.
    53.60824  2932.85261   0.
    40.63972  2936.89193   0.
    13.47285  2946.23828   0.
    37.68088  2934.75035   0.
    46.32767  2931.88185   0.
    18.64740  2941.16071   0.
    13.09413  2950.32980   0.
    18.01744  2935.92389   0.
     0.55332  2948.73049   0.
     5.35766  2947.55011   0.
    42.44669  2933.52960   0.
    57.75733  2932.24094   0.
    23.68300  2931.83870   0.
    19.94397  2947.74183   0.
    61.81887  2931.15328   0.
[...]
POINT_DATA      1414
CELL_DATA      2568
SCALARS Resistivity(ohm.m) double 1
LOOKUP_TABLE default
          1157.24189          1797.77276          2335.84493          1100.34178           507.42846          2266.45001          1346.26491          1554.96019          1705.92736          2135.64447           788.85886          2107.88350           581.92166          2252.69790          2217.11820          1963.64801          1633.24542           478.49271           437.50992          2384.65069          1255.83742          1989.75711          1311.62601           608.63679          1888.23964           489.06804           287.56838          2227.67131          2170.90892          2323.48021           456.46760           501.92162          1718.59348           416.14805           383.84441          1714.02189           753.08614           921.25348          1259.69574          1589.36488          1852.33885           696.21597           417.68257          2256.45207           328.99895           435.10279          2909.68598           836.11432           607.80850           972.53129          2560.11197          1877.01553          1039.26299          1633.80243          2262.35508           869.20554           360.06381          2290.31518           424.27399          1112.84424           516.14357          2104.74556           476.94872          1930.62768           287.41979          1623.15495          2133.74553          2079.96927           301.89014           648.69059           478.80557           813.94512          2036.21492           389.75874           350.85746          2869.26042          1483.86034           469.60419           367.67193          2721.62533          2586.31372          1501.64630           401.71992           439.29590          2037.25141           715.10433           336.59007          2080.86233           904.47256          1957.66233          1038.54634           345.61998          2286.83563           393.81161          1809.52738          1995.06087           546.18060          1256.12390          2139.53526           975.63747          1611.01012           510.04949           585.38571           719.82959          1040.67727          1738.10692           492.40186           956.12170          2154.98471          1347.04258           420.37559          1171.41481          2449.72208          1871.55112          2017.55013          1368.69807          1086.38773          1568.49869           405.84223           325.91932          2327.01824          1446.50605          2957.32787           696.50358           521.41051          2078.58584          2345.07401          3217.30549          1898.46105          1474.75838          2102.32848          1083.59975          1270.23644          2215.25117           817.72579          2760.73722           415.58968          1709.95234           971.89269          1424.42441          1657.05605           489.28929           563.66752          1391.67645          1703.72282           528.12944           429.11737          1531.43245          1958.61037           508.22938          2325.66308          1921.80949           926.25117           701.64163          2274.25467           321.93967          1674.31085           422.61999          2173.07964          1325.74525          1204.65847           480.22200          2274.59454           466.28508          2256.92963           529.70511          1488.10809          1863.91104          1931.28849          1765.89873           727.65979           750.47361           640.56839           292.07084           382.29281           964.61757           736.12438          3507.91268          2579.26196          1141.27734          2257.07673          1473.79447          2029.67746           686.30216           516.76778           918.03060           794.80213           587.20715           894.33041          2400.19290          1246.40544          2342.96597           527.58101          2572.59645           288.52655           454.35100          2511.99135          2124.16029          1255.64154           382.34122           322.73502           850.88299          1864.77630          1498.34369          1859.79212          1015.65865          3821.30968          2306.65746           363.75838          2287.76864          1358.83882           558.33379           386.67467           347.84795           553.10281          1202.12979          2273.44443           480.62922          1267.97602           475.09519           907.23813          1368.61350          1107.29047           362.71500           606.02437           572.08541           412.74757           486.29258          1348.86955           331.19782          1090.96500          2073.25665          1463.08455          2873.96694          2343.96904          1724.48067          2376.28082          1489.67382          1445.64193          1415.56554          2507.70217           632.64763           903.61268           387.38842          2389.71420           298.96196          1915.60790           469.79512           472.90753          2193.38105           291.24637          2080.99335          1787.85945           608.32672          2026.48812           959.46148           624.86471           645.91869           664.34543          2806.35536           551.79650          2253.07345           495.08826           400.36448           426.69888          1700.10549           365.38928          2302.09881           834.63699          2331.04646          1030.41947          2163.79174          2354.99891          2219.18302           458.79731          1676.10090          2265.19624           466.85942           709.31256           647.25745           478.86333          1442.03601           305.35936           910.27024           930.50878          2333.13650           423.65449          2391.62535           595.90452           483.77923           968.78141           335.59819          2257.53726           583.56024          1970.49173          2286.87705          1485.25153           489.62691           412.26674           573.82821          1048.54357           415.39361          2461.94528          2454.51299           418.43685          1843.39246          1359.39098          1581.29182          1946.53091           414.74713           610.73085           560.66668           300.10301          2303.65277           794.35295           360.18210           486.31066          1195.19141          2682.48171           463.17816          3220.81277           375.64974           958.75017           469.78939           483.59258          1226.22716           445.29780          1451.64946          1013.07033          2784.09793          1824.69854          2198.50149           457.58408          1637.66493           339.05598           369.53147           524.97600           563.37779          3110.02223           528.86962          2132.26791           446.51171          2145.98565           464.20645           525.94031          1826.92097          1219.33995          1115.54097           447.37259          2176.05536           474.70469          2369.75358           703.22206           405.69033           419.47615          2076.18567           464.41064          1643.74853           314.34609           360.20956           846.65990          1570.34674           906.61311           472.11292          1400.94335           454.26261           387.22383          2333.82970          1834.32783          2567.64324           469.87229          1352.14290          1459.72009          1046.17739           305.72879          2569.84948           380.23913           480.70223           440.74759          2022.58201          1409.50833           464.36060          1809.20420          2336.45479           302.17473          1396.22858           539.58088          1406.67200           403.91858          1564.30761           624.88173           325.28588          1483.12455          1414.59764           454.38057           820.26498           510.33480          1401.23023          1764.81277          1044.17682           539.02785           555.21711          1391.38426          1507.56157          1353.65453           807.43288           496.80530           881.63507          2282.50968          1711.47318          1563.06233          2147.05528          1043.53622           632.68384          1170.91406          2465.93106           677.92058           880.12187           680.00695          1810.32256          1005.21192           354.15796          2178.66661          1473.49083          1318.68531           293.57843          1682.77722           542.45045          1451.11207           490.72734          1373.57523           486.59941           454.53873          1953.92857          1039.85103          1522.89107          1558.90302           628.17828          1901.86961          1349.57889          3535.58368           585.53448          1195.32738          2076.01964          1152.49844          1100.67519          1340.53560          1234.68403          4112.68715           781.44721          3276.71097          1627.08033          1553.56287          1260.01945          1741.77568           789.33462          2111.56763           851.83466          1411.77373           455.23719          1926.19267          1375.54349           809.53865          1380.40089          2214.22541           772.50552           881.09592          1232.02178          1758.79854          1722.34790           854.06972          1852.11666           855.43121           302.78164          1957.52979          3816.02925          1090.35532           404.29345          1573.69451           697.93566          1107.14207          1971.17200           455.77406           531.87751          2181.01002          2701.89407          1309.62959           391.54361           690.58057           746.04799          1322.67642          1185.02994          1042.20886          1569.93131           727.47756          1522.12432           700.38833          1062.05926          2464.25990          1833.74081           655.62465           358.34657           563.62099          1314.98401           718.47447          1254.18639          3562.09248          1297.07053           340.25527           436.19572          1319.18836          1230.75185           864.92561           373.91311          3091.49510          1458.71594           346.70370          3219.27617          2234.23804           446.64259          1448.97817          1284.20505          1063.73903          1235.62582          1072.49740           486.25419          1668.83034          1494.72559          1513.91108          1349.57432           629.01674          1814.83496           482.05544          1270.23423           515.68471           456.80880           655.91737          1782.09919          1116.48094           864.10961           474.09153           368.21227          1761.17709          1167.10768          4128.82206          4291.05639          3530.80087          2226.48815          2094.66142          2178.54115          3406.20707          5170.68420           655.92601          4601.64425           380.21404          1130.28896          1538.88462           596.75705          3982.62745          4773.92220          1352.35034           445.16001          1968.36965          2879.20916           827.87578           825.75825          1453.03521          4716.46613          1275.89300          2542.66388           954.89787           549.40180          1609.33429          1561.57355           424.18543          3526.21626           540.35961          1411.79145          5438.05786          4371.86871          1818.94439          4965.66605           337.40170           840.76145           491.61394          1888.41278          2751.95681          1795.60599          2842.52267          1765.56397          2776.39432           815.06653          1598.32794          1351.39757          1808.93919          8809.36088          3818.77757           960.76391          5090.55233          3724.27084           804.40958           723.25024          4718.74630          2945.52649          4816.86119          4888.04720          1462.39133           861.04782           632.45495           498.81466           831.48748          4229.71511          1673.99693          1045.62992          1632.72866           376.75568          1147.64229          1781.03211          3679.76750           967.14745           831.58390           696.45634           767.52875          1646.57462          1467.60426           788.22481          3392.43172          3062.66164          3352.08512          3457.16697          6285.30186          3978.22883          2553.75279           566.26320          4686.31304          1230.01789          1631.72239           690.71741          1413.08651           854.84774           363.20803          5906.45013          5098.26436          1520.18972          1566.72533          2910.71150          2264.36810          3335.06313          3240.66395           923.14402          1232.74699           630.63538           788.38932           396.73656           550.53966           781.43479           573.50853          1947.10995          4156.94109          3497.88618          1511.96135          2217.51054          1401.60702          1621.82629          8011.87830          5062.25328          1914.79298           413.38495           614.12465          4895.90402           700.02114          4160.29509          4525.54731          1116.97790          2381.12110           702.94346           916.81488          1133.05793          2306.98481          2367.94170          2658.91552           629.41720           495.55821          1268.70659           402.16285           627.32120           423.90836          3774.90021          5203.88846           437.18291          3100.69481           842.63603          2792.04534          1368.19981           633.05399           629.27299           719.49635           646.54082          1906.46039           737.24031          1425.37558           692.20660          2479.76389          1812.44948          3598.38812          2977.91635           585.36657           634.64678           379.89990          3249.01859           745.06567           739.04442          1285.26498          2686.20199           704.51221           847.66528           549.47237          1267.48916           968.20580          1534.04830          1399.07944           627.20248           790.70179           776.36331          2754.65841          1949.57985          1218.22856          7524.71037          1114.99111           844.66160           897.16534          1462.69854          2406.68207          1561.50386          1607.58594          1563.43749          2888.59239           716.52507          7325.24987          1275.74255          2802.51675           800.20135          1272.07624          3788.73696          2865.54942           779.09305          1092.24263          3526.55136           478.64344           593.25690          1301.44048          3055.34541          5255.94333          1539.47710          7100.64295          1233.30657          1736.85350          1532.68662          1332.14900           459.05290           857.04187          2959.21290           695.73259          4216.32339           613.41014          3042.56824           824.15415           621.10603          1423.50756          2075.49671          3119.81227          4959.28673          2870.07516          1622.21361          1829.76512          1433.58956          5716.83605          7223.49262          1936.07040           997.69092          2884.86937           632.12531          1237.48478           888.60971          2559.63132          1266.60974          1035.90213           618.30569           623.97437          3931.59582           973.20535           776.72126          6189.47980          3964.30625          2636.39774          1379.19770          7104.30566           838.95514          2503.64799          2709.10946          2279.32687          1066.54625          3131.22245          5375.65172          1750.28953           425.67706           781.03406           861.96287          1695.46351          1809.09166           669.48949           734.21145          6028.64605           794.36505          1129.22361          2066.52958          4273.37192          4628.49926           444.99378          1332.78897           876.52176          1065.77685          1818.35601           750.12009           815.72020          1480.22739           833.40203           573.58676           398.79198           807.90281          3052.07223           501.46998          2979.03284          1683.93910          2019.15322          1380.99340          1806.66257          1580.55284           410.69850          3795.78131          1499.63168          1876.32271          1942.26657          2139.33048          4763.31552           965.75487          5713.55258           664.40930           694.18396          1612.51738          1292.05180          7468.26942          2640.54580           890.84136          1779.89643          4140.12553          3461.04089           673.47675          4750.15495          1466.71330          2949.19675          1137.35480          3540.13863          3748.97150           514.65186          3624.54304          3778.30413          2538.38552          5294.17034           846.07820           812.39848          1279.70116          2370.84374           445.06792          8308.97350          3688.85526           683.23181          1690.81740          1709.47819          2142.77385           768.96415          1247.14478         11832.62900           713.29710          2345.73470          1331.13071           478.03219           800.13687          2583.80361          5128.31760          5828.32847          1508.02796          2624.17855          2800.60083          4557.92603           811.14640          1445.08196          2039.94254          1742.38542          5312.56577           640.19242          1274.25961          2755.45864           837.52687          4182.04016          2336.64598          7040.90912          2029.51170          1009.36859          1188.37382           627.92316          5005.72850          7425.77508          1853.58176           336.64171           384.40814           773.61200           830.93556          6322.65799          1503.76303          2188.84009          3350.65923          2598.18371          5895.76624          5565.77789           378.23366           723.39709           789.41020          1248.75000           652.91669          4419.80925          3917.81307          1311.25632           632.29473          1090.53702          2202.58251          3740.71382          2370.80508          2117.97590           847.09906          4397.41495          7438.73368           461.68203           670.93226          1725.26287          7811.25877          1842.95696          3036.21387          4858.04664           680.70883          1758.18700          4517.00377           579.41365          1489.96014           945.51804          5384.16619           883.07278          1749.67104          2883.60865          5586.92322          4795.68793          6184.58531          4689.03058          4420.04872          2017.49519           835.64975          3526.73062          9467.93187           595.22304          2625.13568          2723.95367           318.66583          2535.37554          3260.42287          2491.51659           492.79756          4377.04912           826.50496          3523.90152          4051.74616          1955.68453           795.57325          3236.10694          3318.63958          5031.43182          6052.29656          5648.27406           707.24155           657.32083          1239.37739          4747.20994          1083.46720          2822.14290           829.76926           622.136