# vtk DataFile Version 3.0
Output from R2
ASCII
DATASET UNSTRUCTURED_GRID
POINTS       1414 double
     0.00000  2968.10000   0.
     1.54000  2966.60000   0.
     3.08000  2964.90000   0.
     4.61000  2964.10000   0.
     6.15000  2963.30000   0.
     7.69000  2962.60000   0.
     9.23000  2961.50000   0.
    10.76000  2960.70000   0.
    12.30000  2960.00000   0.
    13.84000  2959.30000   0.
    15.38000  2958.70000   0.
    16.91000  2958.10000   0.
    18.45000  2957.30000   0.
    19.99000  2956.60000   0.
    21.52000  2955.80000   0.
    23.06000  2955.00000   0.
    24.60000  2954.30000   0.
    26.14000  2953.50000   0.
    27.68000  2952.80000   0.
    29.21000  2951.90000   0.
    30.75000  2951.10000   0.
    32.29000  2950.20000   0.
    33.83000  2949.50000   0.
    35.36000  2948.70000   0.
    36.90000  2948.10000   0.
    38.44000  2947.30000   0.
    39.98000  2946.70000   0.
    41.51000  2946.10000   0.
    43.05000  2945.50000   0.
    44.59000  2945.10000   0.
    46.13000  2944.50000   0.
    47.66000  2944.10000   0.
    49.20000  2943.60000   0.
    50.74000  2943.40000   0.
    52.28000  2943.00000   0.
    53.81000  2942.50000   0.
    55.35000  2942.10000   0.
    56.89000  2941.60000   0.
    58.43000  2941.00000   0.
    59.96000  2940.60000   0.
    61.50000  2940.10000   0.
    63.04000  2939.50000   0.
    64.58000  2939.10000   0.
    66.11000  2939.20000   0.
    67.65000  2939.20000   0.
    69.19000  2939.10000   0.
    70.73000  2938.90000   0.
    72.26000  2938.60000   0.
    73.80000  2938.30000   0.
    75.34000  2938.50000   0.
    76.88000  2938.70000   0.
    78.41000  2938.60000   0.
    79.95000  2938.80000   0.
    81.49000  2938.90000   0.
    83.03000  2939.10000   0.
    84.56000  2939.10000   0.
     3.42000  2957.55000   0.
     8.97000  2954.51000   0.
    14.52000  2951.86000   0.
    20.07000  2949.38000   0.
    25.63000  2946.59000   0.
    31.18000  2943.67000   0.
    36.73000  2940.99000   0.
    42.28000  2938.62000   0.
    47.83000  2936.87000   0.
    53.39000  2935.46000   0.
    58.94000  2933.69000   0.
    64.49000  2931.95000   0.
    70.04000  2931.81000   0.
    75.60000  2931.36000   0.
    81.15000  2931.70000   0.
     0.51333  2967.60000   0.
     1.02667  2967.10000   0.
     2.05333  2966.03333   0.
     2.56667  2965.46667   0.
     3.59000  2964.63333   0.
     4.10000  2964.36667   0.
     5.12333  2963.83333   0.
     5.63667  2963.56667   0.
     6.66333  2963.06667   0.
     7.17667  2962.83333   0.
     8.20333  2962.23333   0.
     8.71667  2961.86667   0.
     9.74000  2961.23333   0.
    10.25000  2960.96667   0.
    11.27333  2960.46667   0.
    11.78667  2960.23333   0.
    12.81333  2959.76667   0.
    13.32667  2959.53333   0.
    14.35333  2959.10000   0.
    14.86667  2958.90000   0.
    15.89000  2958.50000   0.
    16.40000  2958.30000   0.
    17.42333  2957.83333   0.
    17.93667  2957.56667   0.
    18.96333  2957.06667   0.
    19.47667  2956.83333   0.
    20.50000  2956.33333   0.
    21.01000  2956.06667   0.
    22.03333  2955.53333   0.
    22.54667  2955.26667   0.
    23.57333  2954.76667   0.
    24.08667  2954.53333   0.
    25.11333  2954.03333   0.
    25.62667  2953.76667   0.
    26.65333  2953.26667   0.
    27.16667  2953.03333   0.
    28.19000  2952.50000   0.
    28.70000  2952.20000   0.
    29.72333  2951.63333   0.
    30.23667  2951.36667   0.
    31.26333  2950.80000   0.
    31.77667  2950.50000   0.
    32.80333  2949.96667   0.
    33.31667  2949.73333   0.
    34.34000  2949.23333   0.
    34.85000  2948.96667   0.
    35.87333  2948.50000   0.
    36.38667  2948.30000   0.
    37.41333  2947.83333   0.
    37.92667  2947.56667   0.
    38.95333  2947.10000   0.
    39.46667  2946.90000   0.
    40.49000  2946.50000   0.
    41.00000  2946.30000   0.
    42.02333  2945.90000   0.
    42.53667  2945.70000   0.
    43.56333  2945.36667   0.
    44.07667  2945.23333   0.
    45.10333  2944.90000   0.
    45.61667  2944.70000   0.
    46.64000  2944.36667   0.
    47.15000  2944.23333   0.
    48.17333  2943.93333   0.
    48.68667  2943.76667   0.
    49.71333  2943.53333   0.
    50.22667  2943.46667   0.
    51.25333  2943.26667   0.
    51.76667  2943.13333   0.
    52.79000  2942.83333   0.
    53.30000  2942.66667   0.
    54.32333  2942.36667   0.
    54.83667  2942.23333   0.
    55.86333  2941.93333   0.
    56.37667  2941.76667   0.
    57.40333  2941.40000   0.
    57.91667  2941.20000   0.
    58.94000  2940.86667   0.
    59.45000  2940.73333   0.
    60.47333  2940.43333   0.
    60.98667  2940.26667   0.
    62.01333  2939.90000   0.
    62.52667  2939.70000   0.
    63.55333  2939.36667   0.
    64.06667  2939.23333   0.
    65.34500  2939.15000   0.
    66.88000  2939.20000   0.
    68.42000  2939.15000   0.
    69.70333  2939.03333   0.
    70.21667  2938.96667   0.
    71.24000  2938.80000   0.
    71.75000  2938.70000   0.
    72.77333  2938.50000   0.
    73.28667  2938.40000   0.
    74.31333  2938.36667   0.
    74.82667  2938.43333   0.
    75.85333  2938.56667   0.
    76.36667  2938.63333   0.
    77.64500  2938.65000   0.
    78.92333  2938.66667   0.
    79.43667  2938.73333   0.
    80.72000  2938.85000   0.
    82.00333  2938.96667   0.
    82.51667  2939.03333   0.
    83.79500  2939.10000   0.
     0.08400  2959.57200   0.
     1.19600  2958.89800   0.
     2.30800  2958.22400   0.
     4.53000  2956.94200   0.
     5.64000  2956.33400   0.
     6.75000  2955.72600   0.
     7.86000  2955.11800   0.
    10.35750  2953.84750   0.
    11.74500  2953.18500   0.
    13.13250  2952.52250   0.
    15.90750  2951.24000   0.
    17.29500  2950.62000   0.
    18.68250  2950.00000   0.
    21.18200  2948.82200   0.
    22.29400  2948.26400   0.
    23.40600  2947.70600   0.
    24.51800  2947.14800   0.
    26.74000  2946.00600   0.
    27.85000  2945.42200   0.
    28.96000  2944.83800   0.
    30.07000  2944.25400   0.
    32.56750  2943.00000   0.
    33.95500  2942.33000   0.
    35.34250  2941.66000   0.
    38.11750  2940.39750   0.
    39.50500  2939.80500   0.
    40.89250  2939.21250   0.
    43.66750  2938.18250   0.
    45.05500  2937.74500   0.
    46.44250  2937.30750   0.
    49.22000  2936.51750   0.
    50.61000  2936.16500   0.
    52.00000  2935.81250   0.
    54.77750  2935.01750   0.
    56.16500  2934.57500   0.
    57.55250  2934.13250   0.
    60.32750  2933.25500   0.
    61.71500  2932.82000   0.
    63.10250  2932.38500   0.
    65.87750  2931.91500   0.
    67.26500  2931.88000   0.
    68.65250  2931.84500   0.
    71.43000  2931.69750   0.
    72.82000  2931.58500   0.
    74.21000  2931.47250   0.
    76.98750  2931.44500   0.
    78.37500  2931.53000   0.
    79.76250  2931.61500   0.
    82.53750  2931.75500   0.
    83.92500  2931.81000   0.
     6.60134  2937.05984   0.
    20.80435  2932.52560   0.
     3.78758  2946.36592   0.
    15.48523  2940.98228   0.
    29.30091  2934.50364   0.
    23.90594  2939.46561   0.
    40.87322  2931.62711   0.
     1.03219  2951.87344   0.
    10.83406  2946.32292   0.
    20.42668  2943.42459   0.
    48.80952  2930.83467   0.
    35.50309  2935.49258   0.
     7.54365  2949.73854   0.
    28.57967  2939.84283   0.
    15.90963  2945.83181   0.
    44.30452  2933.27820   0.
    -0.12722  2955.42655   0.
    24.47411  2943.04615   0.
     4.45051  2952.86019   0.
    40.01017  2935.22543   0.
    52.75593  2931.58993   0.
    13.75183  2934.27842   0.
    32.31862  2938.44653   0.
     0.40990  2931.04902   0.
    19.20708  2946.27332   0.
    57.19103  2930.55709   0.
    -0.97178  2947.27328   0.
    19.39705  2939.49643   0.
    11.08068  2950.12444   0.
    32.86215  2930.47012   0.
     7.41320  2941.82707   0.
    13.76382  2948.77946   0.
    27.17579  2942.79365   0.
     7.27112  2952.68663   0.
     2.71547  2954.94653   0.
    22.91159  2945.17994   0.
     2.00816  2941.86911   0.
    24.73355  2934.79062   0.
    47.86753  2934.00196   0.
    50.62083  2933.29089   0.
    60.15732  2930.28185   0.
    37.65425  2937.53830   0.
    44.64836  2929.77041   0.
    10.93416  2939.02064   0.
     4.26476  2949.76242   0.
    36.78915  2931.78219   0.
     7.36345  2946.13476   0.
    30.92470  2941.06806   0.
     6.19921  2931.10091   0.
    35.16618  2938.51604   0.
    16.36294  2929.87801   0.
    13.43632  2943.77014   0.
    42.64967  2935.50406   0.
    26.89596  2931.23775   0.
     1.59760  2936.73753   0.
    17.19200  2948.13905   0.
    -0.61497  2957.60981   0.
    26.49360  2937.36117   0.
     9.56799  2951.50953   0.
    17.55858  2943.77119   0.
    55.26825  2932.33039   0.
    22.03247  2936.46128   0.
    16.10828  2937.24515   0.
    22.48452  2941.40733   0.
    20.86327  2946.43955   0.
    29.71126  2937.35408   0.
    32.14062  2935.59882   0.
    45.26358  2935.44707   0.
    29.19256  2942.39482   0.
    25.22337  2944.48902   0.
    25.77440  2940.40763   0.
     5.12787  2951.33100   0.
     9.72036  2943.07255   0.
     0.63027  2944.64860   0.
     5.15669  2954.13690   0.
    33.80274  2940.56791   0.
     1.57076  2956.41210   0.
     9.31000  2947.97928   0.
     9.87726  2933.53233   0.
    53.60824  2932.85261   0.
    40.63972  2936.89193   0.
    13.47285  2946.23828   0.
    37.68088  2934.75035   0.
    46.32767  2931.88185   0.
    18.64740  2941.16071   0.
    13.09413  2950.32980   0.
    18.01744  2935.92389   0.
     0.55332  2948.73049   0.
     5.35766  2947.55011   0.
    42.44669  2933.52960   0.
    57.75733  2932.24094   0.
    23.68300  2931.83870   0.
    19.94397  2947.74183   0.
    61.81887  2931.15328   0.
[...]
POINT_DATA      1414
CELL_DATA      2568
SCALARS Resistivity(ohm.m) double 1
LOOKUP_TABLE default
          1131.94228          1690.84637          2102.56815          1101.07577           535.03110          2229.98505          1348.26245          1501.92301          1736.15261          1823.83990           760.55340          1775.80696           560.52173          2559.21414          2488.84890          1729.36968          1586.39105           400.82176           520.72603          2668.76240          1255.08649          1675.63736          1251.63249           639.24975          1920.06371           544.37811           243.94731          2213.76384          2329.23859          2050.21488           539.60536           540.20720          1624.26393           372.62978           327.07368          1716.09444           703.53315           959.05908          1221.31186          1617.45846          1925.28832           656.95992           468.15887          2462.85254           316.58731           396.20597          2962.00069           817.98806           576.69498           957.30219          2893.28858          1941.92082          1006.48173          1617.16936          2140.46849           927.90442           332.83459          2057.14011           476.28563          1069.33700           543.86888          2331.39847           395.18180          1655.22967           249.17442          1636.62887          2167.27539          1811.22955           265.61645           747.07548           511.99955           772.99357          2211.86361           374.67823           285.48771          2823.57622          1328.37659           403.54696           315.66835          2907.99607          2889.48275          1433.10759           452.63051           418.39383          2208.17136           814.80237           311.18285          2223.53897           878.83756          1715.69765          1046.11772           348.86413          2154.75626           328.40806          1839.54286          2150.43355           532.22865          1174.40404          2381.79601          1005.62083          1448.42052           563.44364           656.47271           691.64607          1038.03257          1772.60581           536.84678           936.12449          2060.23445          1235.53460           339.18880          1159.90099          2586.90347          1615.66550          2165.50427          1359.14990          1073.45308          1500.13105           467.58488           290.58707          2510.86094          1315.37515          2932.16356           731.35194           492.02162          2124.58390          2504.84874          3047.92194          1600.30277          1459.07830          1971.32493          1098.63262          1248.39015          2519.88339           816.87884          2742.44093           341.60176          1720.75940          1014.68197          1413.28728          1539.30290           545.87361           645.03157          1381.16028          1649.73774           590.34059           501.58497          1398.81622          2004.02960           585.02228          2035.00201          2030.62719           921.95159           649.76878          2559.26345           262.73693          1524.19157           367.51000          2369.09765          1292.19978          1140.29715           551.78255          2401.85210           511.90522          2002.58818           544.51661          1498.03079          1757.64077          2028.58413          1746.60869           682.22527           760.31098           712.57075           248.78451           432.80759           933.98775           834.02954          3199.78182          2636.88360          1100.21328          2439.86798          1366.95790          1939.14052           745.45884           552.14669           979.94743           887.91035           680.41731           859.84390          2669.45950          1222.69980          2658.69790           623.98270          2825.07497           251.05504           540.08608          2823.82688          1901.38429          1190.31362           435.59687           266.22225           813.82746          1583.76549          1441.00644          1700.38829          1048.01490          3439.66491          2071.97403           400.05368          1974.38062          1292.94555           614.60071           447.40915           304.39182           612.14571          1161.85574          2519.15376           495.54458          1191.26535           563.61116           877.54418          1247.12763          1083.76599           307.62992           623.75750           668.83371           363.79413           571.77525          1345.51048           319.55833          1061.92073          1922.48014          1339.65805          2800.50439          2694.20191          1519.61165          2755.75366          1355.26880          1296.06210          1312.46894          2740.80391           618.04885           976.17574           392.22709          2734.66835           243.34599          1740.14241           526.21237           398.27330          1898.69749           239.55556          1838.41088          1529.99948           710.08017          2006.36524           961.10593           584.55833           744.76597           682.95086          2756.27442           550.69934          1955.32060           447.88101           432.07013           487.69005          1470.82202           326.67473          2196.98572           923.23139          2094.50834           998.96691          1852.67606          2478.08088          2319.02241           448.41767          1519.82512          1960.73134           419.40355           655.48440           602.07619           416.99109          1410.54497           251.28165           930.54698           900.38726          2163.47244           499.47335          2737.87252           596.05857           448.40254           941.84989           273.17257          2586.56472           671.52826          1956.60295          2430.19482          1320.14117           569.45919           432.79348           674.86858          1037.86177           485.60850          2834.25755          2636.83493           366.51661          1915.11917          1309.06334          1482.55364          2063.80123           359.03870           712.26529           552.38940           272.82476          2313.47919           753.73705           297.07977           525.47222          1156.45111          2677.48331           471.55674          3013.97078           396.56060           989.22658           435.81491           578.17623          1194.73939           505.22354          1431.98152          1053.87955          2818.43934          1667.02655          2098.90368           514.34841          1422.95695           341.77134           408.90367           624.00895           596.57928          2954.02810           600.81753          2329.02900           374.57264          2077.17003           420.47134           602.63410          1877.62395          1152.15819          1079.28311           498.06179          2292.18619           412.19201          2607.96868           799.76815           327.11900           498.51257          2198.53568           535.53721          1423.93632           300.18889           384.51164           808.81652          1556.48841           883.61501           518.03955          1349.84304           480.00142           316.44068          2433.42702          1553.75144          2611.89918           400.27542          1323.80651          1372.69842          1024.35127           280.89177          2726.16055           415.09654           463.29231           386.02008          2137.84228          1323.48388           384.68256          1869.49931          2701.72155           248.64487          1359.12924           566.83769          1289.49920           475.42853          1380.16532           713.84574           326.04103          1445.71801          1428.09254           403.92887           785.60103           566.57620          1354.17648          1779.30819          1008.04479           547.72089           629.46831          1280.27886          1505.56757          1250.74969           874.28831           568.30345           949.54538          2321.31212          1489.71865          1372.06290          2397.63980          1008.37176           666.01081          1165.46086          2824.61815           625.88168           934.65069           665.93479          1538.85583           971.45939           383.77349          2383.30854          1317.45356          1219.57328           262.89751          1601.36420           553.69151          1385.56030           450.49739          1255.93934           434.60184           392.01962          1933.26863          1026.72281          1415.74075          1377.26204           599.39039          2002.43673          1324.53937          3210.80840           625.37454          1165.24613          2071.66126          1144.99714          1068.35662          1325.86998          1192.44230          3754.97757           862.61531          3057.97985          1435.38413          1445.38079          1237.47995          1610.29052           825.02234          2321.05188           931.08680          1282.46840           390.23057          1861.39158          1278.81559           895.18970          1304.47212          2007.18986           829.81791           847.66787          1178.00909          1698.46373          1480.77659           822.51702          1787.73637           876.73094           272.36087          1844.23004          3481.00842          1049.00051           447.01209          1397.33133           702.53402          1100.23112          1877.88716           545.33896           509.61380          1934.32332          2928.86111          1237.99318           315.06843           634.76375           773.31223          1248.38698          1130.83657          1074.74798          1567.32194           814.30937          1515.20531           779.88776          1052.43712          2539.67969          1816.41809           617.28072           290.07458           564.60998          1214.73306           784.44905          1176.34102          3308.01297          1218.95133           355.12187           521.57129          1234.12040          1166.79642           870.20759           395.87979          2938.72855          1454.59115           360.79158          3041.65524          2515.55258           380.15399          1301.28761          1219.07805          1075.20699          1167.65383          1072.33737           557.45538          1463.04435          1478.22304          1491.26968          1297.29427           721.88624          1565.16672           398.74989          1233.92673           583.31445           386.27122           738.49918          1558.89699          1096.52346           945.31861           395.95474           378.54678          1579.28394          1130.54290          4233.36179          4352.18509          3587.71278          2252.81387          2107.36694          2116.15780          3368.56090          5186.78000           679.64724          4646.89815           494.93974          1124.98466          1456.38934           676.15453          3506.64003          5269.57644          1335.12884           447.12507          2181.59438          2753.18490           774.83038           899.20035          1533.82627          4028.01995          1437.50853          2152.85260           981.16131           649.58608          1367.03817          1651.64983           513.71522          3265.27270           538.82093          1413.28378          5539.61521          3805.65061          1752.57090          4857.37343           284.53761           804.44112           519.83415          2017.90740          2927.71426          1819.78797          3145.42419          1929.69527          2642.09066           753.38055          1636.31109          1356.89279          1907.50729          8326.35464          3664.66309           935.55303          4355.81807          4291.79723           813.68544           669.34716          5142.83681          2690.60446          4120.09974          4848.26492          1503.17271           965.61062           622.87266           563.72457           894.93026          4200.22233          1645.93741          1067.38579          1723.47959           326.29723          1023.01672          1866.54966          3784.51726          1060.89283           921.43957           638.58703           885.12103          1651.24949          1493.94173           855.98813          3379.77750          2894.14998          3167.26622          3515.04300          5518.93408          4213.21745          2801.88253           601.07445          4220.99137          1292.14377          1676.92425           662.13730          1482.16116           976.27745           396.11114          5933.09834          5470.78481          1609.98523          1646.81901          2880.56902          2458.43821          3166.04289          2868.04557           998.87022          1486.61385           605.36518           857.30752           396.63713           546.54984           754.65962           587.66993          2166.36374          4249.94020          3570.96906          1545.84598          2284.57472          1435.27954          1659.53820          8408.20896          4680.48473          2039.80697           410.73384           577.86707          5491.70049           714.35669          3942.17349          4168.18801          1017.93859          2223.12777           695.40300           969.27350          1024.80138          2365.14299          2374.93546          2737.56316           643.25279           550.00590          1027.21610           366.60153           633.64605           456.49760          3490.06803          5388.33989           528.04561          2975.50872           923.00321          2564.90706          1111.75993           698.25269           648.51190           737.59281           702.37638          2100.10655           785.87316          1486.66984           726.59963          2362.31999          1949.60443          4340.82761          2680.73176           755.21310           584.56985           330.93702          3214.30812           747.95278           743.40175          1246.12727          2842.86074           742.65229           810.44546           558.62725          1230.30544          1172.29319          1818.92391          1400.63992           644.91675           720.33621           694.81316          2791.29249          1792.93782          1241.23754          8370.19179          1033.87761           970.65476           842.70146          1845.33793          2588.11125          1618.95007          1556.58069          1863.24409          2468.51241           567.84755          7225.73070          1523.29286          2867.82466           867.76365          1034.88211          4137.93166          2790.39081           781.24761          1060.10089          3410.33880           525.03250           505.65860          1308.53433          2720.94475          5604.05171          1504.17616          7031.61045          1491.95721          1820.25980          1623.06816          1076.98794           466.83353           765.53252          2812.09855           637.24201          4274.77064           640.50157          3291.85690           839.88901           865.06159          1493.66341          2044.40930          2984.39760          5348.33474          2699.80155          1401.30513          1759.52989          1315.89524          5483.69844          7456.02088          2085.70214          1057.05072          3032.37292           663.39173          1024.09624           884.63040          2822.64200          1023.72605           975.52431           589.73125           644.53826          3551.88024          1178.11700           750.00419          6158.20564          3952.59874          2224.88586          1364.14132          7361.49636           847.91859          2795.91062          3126.83776          2228.49616          1297.60664          2766.97796          5375.25481          1753.95103           440.90760           707.34834           803.93329          1874.68107          1728.92337           747.12541           704.94006          6586.82150           818.42461          1269.67471          1932.76338          3880.59131          4876.49408           509.06379          1333.79008           927.28946          1035.91368          1941.99544           825.94868           767.36822          1538.30204           772.49198           631.75483           421.16428           840.69900          3015.00666           525.99657          3020.73789          1705.90827          1957.09381          1389.18551          1926.47981          1684.28210           429.24897          4756.56745          1552.34046          2049.28661          2056.48065          2176.25699          4971.65040           975.14199          4949.59546           519.46091           675.79247          1623.99371          1035.24781          7649.47916          2909.19955           903.66502          1651.26155          4057.39187          3507.44941           611.63521          4907.60765          1473.07970          2612.84463          1069.65410          3509.52267          4016.20672           532.55356          3512.55474          3905.50147          2609.32053          5184.95709           830.06976           788.42781          1036.90350          2164.40671           512.26251          9447.70375          3813.57225           613.52548          1784.37228          1883.11821          2043.86417           777.01388          1026.48640         13784.95812           742.25121          2462.61123          1339.25833           501.50853           828.87216          2556.85277          5195.92009          5890.52592          1821.20146          2089.44138          2550.69049          4125.67653           731.36452          1416.28024          2185.36033          1946.91682          5253.96204           620.21625          1027.58688          2848.72768           903.22259          3977.04774          2591.28662          6651.75524          3117.85908          1333.03544          1083.23825           660.96533          4862.04086          7284.90198          1969.34429           249.18482           355.06475           770.81785           858.92805          6110.85651          1295.99319          2126.07955          3340.93822          2442.01663          6133.20199          5512.99500           369.60971           541.40784           859.02151          1246.36546           640.79886          4338.84989          4065.26875          1384.82984           743.47967          1026.82531          2276.90585          3740.10586          2562.77548          2070.54548          1010.60963          4148.88127          7552.35976           501.38132           672.24431          1863.13883          8100.28605          2195.07052          3091.32957          4941.79173           790.91459          2000.86435          4385.99115           526.57600          1538.98724          1142.12236          6080.23435           845.95064          1841.19615          3054.85183          5139.37504          5467.97678          5674.70613          4778.16782          4333.96744          1751.46135           937.68514          3188.45841         10713.27094           655.00795          2538.16305          2911.18735           275.28186          2438.64051          3691.18812          2547.35506           454.34529          4580.75585           818.89782          3456.81188          4171.34354          1895.80620           748.09433          3089.54394          3660.87656          5454.45692          5926.20044          4982.05886           655.84172           658.05574          1349.24829          5145.99615          1124.83309          2733.38346           988.14081           615.034