# vtk DataFile Version 3.0
Output from R2
ASCII
DATASET UNSTRUCTURED_GRID
POINTS       1414 double
     0.00000  2968.10000   0.
     1.54000  2966.60000   0.
     3.08000  2964.90000   0.
     4.61000  2964.10000   0.
     6.15000  2963.30000   0.
     7.69000  2962.60000   0.
     9.23000  2961.50000   0.
    10.76000  2960.70000   0.
    12.30000  2960.00000   0.
    13.84000  2959.30000   0.
    15.38000  2958.70000   0.
    16.91000  2958.10000   0.
    18.45000  2957.30000   0.
    19.99000  2956.60000   0.
    21.52000  2955.80000   0.
    23.06000  2955.00000   0.
    24.60000  2954.30000   0.
    26.14000  2953.50000   0.
    27.68000  2952.80000   0.
    29.21000  2951.90000   0.
    30.75000  2951.10000   0.
    32.29000  2950.20000   0.
    33.83000  2949.50000   0.
    35.36000  2948.70000   0.
    36.90000  2948.10000   0.
    38.44000  2947.30000   0.
    39.98000  2946.70000   0.
    41.51000  2946.10000   0.
    43.05000  2945.50000   0.
    44.59000  2945.10000   0.
    46.13000  2944.50000   0.
    47.66000  2944.10000   0.
    49.20000  2943.60000   0.
    50.74000  2943.40000   0.
    52.28000  2943.00000   0.
    53.81000  2942.50000   0.
    55.35000  2942.10000   0.
    56.89000  2941.60000   0.
    58.43000  2941.00000   0.
    59.96000  2940.60000   0.
    61.50000  2940.10000   0.
    63.04000  2939.50000   0.
    64.58000  2939.10000   0.
    66.11000  2939.20000   0.
    67.65000  2939.20000   0.
    69.19000  2939.10000   0.
    70.73000  2938.90000   0.
    72.26000  2938.60000   0.
    73.80000  2938.30000   0.
    75.34000  2938.50000   0.
    76.88000  2938.70000   0.
    78.41000  2938.60000   0.
    79.95000  2938.80000   0.
    81.49000  2938.90000   0.
    83.03000  2939.10000   0.
    84.56000  2939.10000   0.
     3.42000  2957.55000   0.
     8.97000  2954.51000   0.
    14.52000  2951.86000   0.
    20.07000  2949.38000   0.
    25.63000  2946.59000   0.
    31.18000  2943.67000   0.
    36.73000  2940.99000   0.
    42.28000  2938.62000   0.
    47.83000  2936.87000   0.
    53.39000  2935.46000   0.
    58.94000  2933.69000   0.
    64.49000  2931.95000   0.
    70.04000  2931.81000   0.
    75.60000  2931.36000   0.
    81.15000  2931.70000   0.
     0.51333  2967.60000   0.
     1.02667  2967.10000   0.
     2.05333  2966.03333   0.
     2.56667  2965.46667   0.
     3.59000  2964.63333   0.
     4.10000  2964.36667   0.
     5.12333  2963.83333   0.
     5.63667  2963.56667   0.
     6.66333  2963.06667   0.
     7.17667  2962.83333   0.
     8.20333  2962.23333   0.
     8.71667  2961.86667   0.
     9.74000  2961.23333   0.
    10.25000  2960.96667   0.
    11.27333  2960.46667   0.
    11.78667  2960.23333   0.
    12.81333  2959.76667   0.
    13.32667  2959.53333   0.
    14.35333  2959.10000   0.
    14.86667  2958.90000   0.
    15.89000  2958.50000   0.
    16.40000  2958.30000   0.
    17.42333  2957.83333   0.
    17.93667  2957.56667   0.
    18.96333  2957.06667   0.
    19.47667  2956.83333   0.
    20.50000  2956.33333   0.
    21.01000  2956.06667   0.
    22.03333  2955.53333   0.
    22.54667  2955.26667   0.
    23.57333  2954.76667   0.
    24.08667  2954.53333   0.
    25.11333  2954.03333   0.
    25.62667  2953.76667   0.
    26.65333  2953.26667   0.
    27.16667  2953.03333   0.
    28.19000  2952.50000   0.
    28.70000  2952.20000   0.
    29.72333  2951.63333   0.
    30.23667  2951.36667   0.
    31.26333  2950.80000   0.
    31.77667  2950.50000   0.
    32.80333  2949.96667   0.
    33.31667  2949.73333   0.
    34.34000  2949.23333   0.
    34.85000  2948.96667   0.
    35.87333  2948.50000   0.
    36.38667  2948.30000   0.
    37.41333  2947.83333   0.
    37.92667  2947.56667   0.
    38.95333  2947.10000   0.
    39.46667  2946.90000   0.
    40.49000  2946.50000   0.
    41.00000  2946.30000   0.
    42.02333  2945.90000   0.
    42.53667  2945.70000   0.
    43.56333  2945.36667   0.
    44.07667  2945.23333   0.
    45.10333  2944.90000   0.
    45.61667  2944.70000   0.
    46.64000  2944.36667   0.
    47.15000  2944.23333   0.
    48.17333  2943.93333   0.
    48.68667  2943.76667   0.
    49.71333  2943.53333   0.
    50.22667  2943.46667   0.
    51.25333  2943.26667   0.
    51.76667  2943.13333   0.
    52.79000  2942.83333   0.
    53.30000  2942.66667   0.
    54.32333  2942.36667   0.
    54.83667  2942.23333   0.
    55.86333  2941.93333   0.
    56.37667  2941.76667   0.
    57.40333  2941.40000   0.
    57.91667  2941.20000   0.
    58.94000  2940.86667   0.
    59.45000  2940.73333   0.
    60.47333  2940.43333   0.
    60.98667  2940.26667   0.
    62.01333  2939.90000   0.
    62.52667  2939.70000   0.
    63.55333  2939.36667   0.
    64.06667  2939.23333   0.
    65.34500  2939.15000   0.
    66.88000  2939.20000   0.
    68.42000  2939.15000   0.
    69.70333  2939.03333   0.
    70.21667  2938.96667   0.
    71.24000  2938.80000   0.
    71.75000  2938.70000   0.
    72.77333  2938.50000   0.
    73.28667  2938.40000   0.
    74.31333  2938.36667   0.
    74.82667  2938.43333   0.
    75.85333  2938.56667   0.
    76.36667  2938.63333   0.
    77.64500  2938.65000   0.
    78.92333  2938.66667   0.
    79.43667  2938.73333   0.
    80.72000  2938.85000   0.
    82.00333  2938.96667   0.
    82.51667  2939.03333   0.
    83.79500  2939.10000   0.
     0.08400  2959.57200   0.
     1.19600  2958.89800   0.
     2.30800  2958.22400   0.
     4.53000  2956.94200   0.
     5.64000  2956.33400   0.
     6.75000  2955.72600   0.
     7.86000  2955.11800   0.
    10.35750  2953.84750   0.
    11.74500  2953.18500   0.
    13.13250  2952.52250   0.
    15.90750  2951.24000   0.
    17.29500  2950.62000   0.
    18.68250  2950.00000   0.
    21.18200  2948.82200   0.
    22.29400  2948.26400   0.
    23.40600  2947.70600   0.
    24.51800  2947.14800   0.
    26.74000  2946.00600   0.
    27.85000  2945.42200   0.
    28.96000  2944.83800   0.
    30.07000  2944.25400   0.
    32.56750  2943.00000   0.
    33.95500  2942.33000   0.
    35.34250  2941.66000   0.
    38.11750  2940.39750   0.
    39.50500  2939.80500   0.
    40.89250  2939.21250   0.
    43.66750  2938.18250   0.
    45.05500  2937.74500   0.
    46.44250  2937.30750   0.
    49.22000  2936.51750   0.
    50.61000  2936.16500   0.
    52.00000  2935.81250   0.
    54.77750  2935.01750   0.
    56.16500  2934.57500   0.
    57.55250  2934.13250   0.
    60.32750  2933.25500   0.
    61.71500  2932.82000   0.
    63.10250  2932.38500   0.
    65.87750  2931.91500   0.
    67.26500  2931.88000   0.
    68.65250  2931.84500   0.
    71.43000  2931.69750   0.
    72.82000  2931.58500   0.
    74.21000  2931.47250   0.
    76.98750  2931.44500   0.
    78.37500  2931.53000   0.
    79.76250  2931.61500   0.
    82.53750  2931.75500   0.
    83.92500  2931.81000   0.
     6.60134  2937.05984   0.
    20.80435  2932.52560   0.
     3.78758  2946.36592   0.
    15.48523  2940.98228   0.
    29.30091  2934.50364   0.
    23.90594  2939.46561   0.
    40.87322  2931.62711   0.
     1.03219  2951.87344   0.
    10.83406  2946.32292   0.
    20.42668  2943.42459   0.
    48.80952  2930.83467   0.
    35.50309  2935.49258   0.
     7.54365  2949.73854   0.
    28.57967  2939.84283   0.
    15.90963  2945.83181   0.
    44.30452  2933.27820   0.
    -0.12722  2955.42655   0.
    24.47411  2943.04615   0.
     4.45051  2952.86019   0.
    40.01017  2935.22543   0.
    52.75593  2931.58993   0.
    13.75183  2934.27842   0.
    32.31862  2938.44653   0.
     0.40990  2931.04902   0.
    19.20708  2946.27332   0.
    57.19103  2930.55709   0.
    -0.97178  2947.27328   0.
    19.39705  2939.49643   0.
    11.08068  2950.12444   0.
    32.86215  2930.47012   0.
     7.41320  2941.82707   0.
    13.76382  2948.77946   0.
    27.17579  2942.79365   0.
     7.27112  2952.68663   0.
     2.71547  2954.94653   0.
    22.91159  2945.17994   0.
     2.00816  2941.86911   0.
    24.73355  2934.79062   0.
    47.86753  2934.00196   0.
    50.62083  2933.29089   0.
    60.15732  2930.28185   0.
    37.65425  2937.53830   0.
    44.64836  2929.77041   0.
    10.93416  2939.02064   0.
     4.26476  2949.76242   0.
    36.78915  2931.78219   0.
     7.36345  2946.13476   0.
    30.92470  2941.06806   0.
     6.19921  2931.10091   0.
    35.16618  2938.51604   0.
    16.36294  2929.87801   0.
    13.43632  2943.77014   0.
    42.64967  2935.50406   0.
    26.89596  2931.23775   0.
     1.59760  2936.73753   0.
    17.19200  2948.13905   0.
    -0.61497  2957.60981   0.
    26.49360  2937.36117   0.
     9.56799  2951.50953   0.
    17.55858  2943.77119   0.
    55.26825  2932.33039   0.
    22.03247  2936.46128   0.
    16.10828  2937.24515   0.
    22.48452  2941.40733   0.
    20.86327  2946.43955   0.
    29.71126  2937.35408   0.
    32.14062  2935.59882   0.
    45.26358  2935.44707   0.
    29.19256  2942.39482   0.
    25.22337  2944.48902   0.
    25.77440  2940.40763   0.
     5.12787  2951.33100   0.
     9.72036  2943.07255   0.
     0.63027  2944.64860   0.
     5.15669  2954.13690   0.
    33.80274  2940.56791   0.
     1.57076  2956.41210   0.
     9.31000  2947.97928   0.
     9.87726  2933.53233   0.
    53.60824  2932.85261   0.
    40.63972  2936.89193   0.
    13.47285  2946.23828   0.
    37.68088  2934.75035   0.
    46.32767  2931.88185   0.
    18.64740  2941.16071   0.
    13.09413  2950.32980   0.
    18.01744  2935.92389   0.
     0.55332  2948.73049   0.
     5.35766  2947.55011   0.
    42.44669  2933.52960   0.
    57.75733  2932.24094   0.
    23.68300  2931.83870   0.
    19.94397  2947.74183   0.
    61.81887  2931.15328   0.
[...]
POINT_DATA      1414
CELL_DATA      2568
SCALARS Resistivity(ohm.m) double 1
LOOKUP_TABLE default
          1143.13450          1732.18347          2572.81753          1109.13920           519.84239          2360.20094          1251.30640          1403.59476          1641.22346          2151.94271           754.88274          2085.35361           595.77498          2219.74835          2202.09937          1849.92368          1555.32770           418.05525           532.44530          2301.50723          1185.22341          1915.36802          1248.56032           638.37843          1841.75224           528.08074           266.02327          2284.47481          2186.60622          2528.62950           551.28085           532.74518          1643.80759           389.37210           352.51555          1562.62934           686.24095           976.18387          1209.48040          1462.56130          1809.26939           666.35654           481.86883          2274.42463           328.34937           414.66740          2923.99552           812.31842           609.90341           895.54691          2393.78857          1831.92546           986.19529          1558.74614          2305.66425           950.09948           352.34885          2453.91941           470.64378          1058.56267           538.90197          2080.13306           414.19529          1823.71198           265.96948          1551.34133          2137.37650          2081.12213           283.66351           776.78695           516.92899           735.25453          2021.62222           393.84240           315.43310          2937.20328          1392.18025           418.00201           343.09499          2681.34145          2472.99767          1352.18447           440.26485           437.59349          2010.68884           843.66124           328.27433          2081.39480           820.47644          1918.04386          1058.67831           358.37386          2429.98672           357.42041          1665.17558          1969.04445           539.08067          1181.42495          2124.65770          1020.90511          1520.63560           570.17049           680.17648           699.25439          1025.10753          1676.83868           528.71753           923.56782          2104.49630          1256.56948           367.25148          1070.56277          2493.54502          1801.81274          2004.31261          1301.92912           989.32575          1485.86142           477.30790           310.10142          2320.82347          1360.91650          3001.69190           753.49873           499.11057          2065.05976          2382.77604          3286.56624          1810.34908          1341.11878          2115.45126          1101.10203          1217.62153          2172.60177           822.05979          2838.74817           369.13623          1643.08403          1030.22489          1351.94035          1574.66084           547.34208           668.89515          1271.05748          1630.39076           604.54601           509.64266          1443.10121          1921.93026           540.68350          2500.48221          1885.85637           921.73209           653.98613          2217.86953           292.51812          1523.03402           383.41068          2183.22457          1261.37260          1129.03388           559.57787          2309.34856           515.61835          2378.99980           542.29970          1368.13024          1714.69643          1902.39150          1701.41780           681.19125           774.45045           739.71926           269.55056           424.27217           872.77194           863.80460          3578.07280          2646.51573          1107.88360          2247.84163          1333.16193          2015.45802           771.84215           555.74785           998.89289           915.56146           708.84796           815.49600          2382.94510          1199.50280          2302.07269           650.18519          2528.41046           268.16983           557.46270          2434.41830          2149.58927          1208.46233           438.61627           294.89500           767.92526          1779.42798          1416.46623          1716.00592          1059.20786          3877.24830          2405.86432           401.66362          2411.69837          1287.03457           633.31928           446.73408           326.82045           584.46515          1172.49203          2276.39540           506.17780          1214.68340           579.76836           818.08830          1280.75725          1093.80678           333.19504           643.48826           697.59330           388.43990           593.62937          1286.04598           313.67103           984.45105          1981.87709          1377.44212          2965.02274          2239.05285          1585.99453          2255.55871          1357.66211          1345.78969          1334.94659          2493.57254           639.35484           994.71575           407.96880          2319.46423           271.17269          1868.85771           526.93603           418.39802          2255.67962           265.92150          2005.33739          1669.46047           741.26187          2006.36574           967.05476           621.48127           776.41208           703.11535          2902.76091           570.66689          2360.30995           460.35431           445.52984           490.33190          1575.09973           348.75511          2457.96780           946.65885          2497.13042           933.65211          2154.28109          2401.49100          2234.31522           465.79968          1591.63033          2338.48373           435.64261           655.06608           626.42745           432.06871          1364.96011           277.77788           942.65591           870.22772          2544.46766           511.68786          2264.18709           616.47290           464.32489           872.74329           301.35944          2196.93702           699.26862          1937.39985          2304.81624          1386.88752           583.36429           448.79773           704.36885           965.45582           490.93808          2301.06869          2477.82691           379.16190          1796.90663          1288.08270          1496.64983          1920.44146           385.02952           743.06048           577.68539           286.16528          2400.83207           734.70355           324.82171           515.49945          1078.58399          2771.38537           488.54609          3303.06595           375.12847           958.09195           454.51794           598.28778          1186.32309           512.89388          1375.65142          1060.97565          2829.73608          1760.37254          2255.45032           532.81834          1517.90026           332.45751           398.49591           649.79771           613.00883          3185.90122           559.68089          2104.44239           399.16752          2171.26456           429.11345           620.52286          1775.37610          1164.23265          1087.35175           506.46217          2172.92058           430.34465          2373.10555           831.15988           355.00019           508.58885          2052.57334           542.24884          1534.72082           308.54205           389.99005           771.62278          1493.26187           867.10657           537.81512          1325.10102           498.86755           343.90099          2385.52255          1732.24830          2642.54426           416.68309          1284.22603          1376.71451           944.20797           287.09428          2587.96336           396.65440           476.51078           398.10785          1993.20515          1330.12335           406.84708          1758.43557          2249.54783           276.53048          1322.14065           578.27544          1287.52535           479.88588          1442.99694           741.65418           325.81658          1403.25227          1326.01337           425.87046           766.59825           588.69135          1262.88249          1703.19157           972.60569           558.31431           654.84892          1313.72566          1432.31932          1282.44101           899.82467           532.67965           971.82721          2353.08740          1618.34054          1460.77351          2115.28852           957.22147           665.51414          1088.60864          2287.68293           639.82597           893.40353           681.81156          1713.50185           931.92935           380.60780          2151.72083          1362.89286          1251.01945           275.18266          1523.53392           567.27787          1370.13978           458.41441          1296.94207           446.10790           413.68129          1826.21978          1032.33170          1436.59637          1461.76903           624.76558          1865.39053          1221.45701          3598.95064           616.04481          1167.54913          1993.06664          1140.60692          1069.24621          1276.15803          1193.83078          4185.17953           890.90717          3347.89779          1532.48234          1403.89660          1140.63251          1586.85798           844.17329          2105.37084           955.38285          1304.14203           404.65297          1884.89145          1300.67575           922.34047          1247.29474          2295.71921           854.45327           815.74431          1118.64552          1600.74931          1621.51431           775.29800          1797.01977           889.60148           282.59249          1923.14336          3895.05368          1004.12312           426.53667          1443.23737           719.95082          1036.66183          1842.04593           562.44570           513.75468          2239.34067          2616.91155          1188.46359           343.96581           645.75298           792.32183          1258.09603          1085.48793          1077.57056          1494.16322           844.47357          1445.67638           809.39330          1061.86874          2528.72026          1777.68934           637.83180           319.71305           584.85896          1243.75333           811.61335          1196.81966          3664.52214          1239.14230           355.48331           534.65891          1206.05559          1186.55359           876.19445           405.96473          3186.62913          1385.37646           365.83437          3324.24212          2185.01000           396.54052          1359.33235          1229.40451          1085.70538          1138.79259          1084.28234           578.89942          1536.03295          1417.38761          1435.39214          1216.27643           752.32484          1691.12323           415.64355          1145.94214           606.36824           402.42788           768.00260          1701.03390          1108.88391           967.70616           412.56890           390.38780          1683.56024          1145.21368          4071.41785          4148.03714          3503.64473          2138.95415          2048.72765          2195.35452          3441.73586          5261.15593           678.94019          4369.60328           485.01066          1070.70348          1387.28019           684.03180          3534.76283          5134.94455          1362.84258           441.61908          2104.97336          2744.95193           776.23411           894.88753          1495.31300          4580.38662          1403.93284          1927.59998           975.95504           641.98236          1360.61901          1528.49171           484.15863          3668.00929           560.03588          1510.98080          5670.64132          4279.46776          1692.54564          4692.00614           310.78302           796.81198           534.03944          2070.74569          2572.95269          1998.04903          3217.26385          1883.25488          2436.39988           725.20694          1576.13592          1344.30710          1844.57563          8908.14051          3625.43794           927.70585          4890.32167          4396.82283           815.19754           702.22590          5087.16302          2563.30619          4580.84940          4660.92890          1470.70824           889.57383           616.98461           590.68941           845.34207          4285.53785          1836.30398          1005.76764          1535.56808           352.13399          1043.03721          1864.35981          3586.83303          1058.47384           918.60314           675.34282           868.40925          1682.48600          1529.52883           851.47198          3448.16347          2931.18214          3447.70854          3605.95901          5709.40881          4347.84463          2713.75023           586.16630          3987.07450          1239.55798          1782.31401           614.32697          1408.92511           942.14630           389.53602          5852.34639          5194.95158          1584.77031          1652.42257          2789.17475          2426.77858          3213.20008          3099.33976           924.78860          1454.69872           639.97541           885.57006           398.66364           558.51063           747.39060           591.75365          2087.80174          4429.52351          3725.30584          1592.74327          2326.46774          1426.49914          1795.45891          7981.72767          5083.20030          2078.56816           414.47394           554.23908          5238.40608           742.36406          3936.16726          4427.68220          1021.66290          2669.88324           746.51071           974.10246          1027.20862          2561.85069          2650.32200          2754.21694           679.68246           537.89387          1104.76015           389.29921           576.87752           437.43217          3806.04194          5521.66828           502.77627          2856.98400           941.03278          2394.17880          1172.88053           709.51989           646.97089           715.21053           699.08991          1971.71768           772.88611          1514.37619           726.56253          2337.04525          1709.98752          4333.19425          2514.97359           754.01135           615.31083           355.83790          3337.50583           778.10916           788.24299          1328.62612          2739.95289           759.54459           796.74850           527.97811          1336.70260          1238.57604          1734.44993          1453.13672           673.01989           719.55541           679.91534          2452.67641          1881.97011          1232.81452          7675.49222          1020.10717           959.50066           910.51574          1821.22171          2590.24559          1468.69800          1538.56165          1864.37075          2538.96413           564.62556          6864.18786          1573.40616          2590.19362           873.52307          1115.18879          4106.07593          2845.01013           785.44477          1174.47509          3535.86757           552.32443           544.36541          1318.02555          2576.58661          5587.49927          1467.58516          7009.84809          1397.60354          1850.46572          1541.64121          1139.77232           427.92295           777.64456          2944.72517           655.22964          4352.12264           667.14182          3302.02278           856.45998           874.51322          1579.59692          2064.77077          3235.33326          5423.90128          2471.33130          1450.61359          1820.09441          1280.33688          5254.10418          7348.02301          1866.45508           999.75046          3005.32815           681.07453          1082.88900           789.03630          2864.55621          1093.24535           924.13548           621.89025           670.35708          3638.48895          1095.72533           739.04620          6046.57720          4046.43359          2395.51708          1467.24030          7193.92845           768.07594          2796.80922          3116.06826          2327.91320          1226.93312          2864.97236          5603.10828          1789.16939           455.33853           707.44596           850.87175          1917.56707          1851.70433           729.16241           693.24777          6061.03710           821.89233          1279.81955          1762.10443          4008.55223          5210.96304           524.14028          1342.06753           883.11704          1049.92125          1965.80337           781.35202           848.22647          1443.90825           751.57363           633.11450           423.30943           822.73444          3045.19172           535.15891          2958.32270          1735.87759          2005.33502          1396.21195          1985.72212          1524.70675           426.86813          4726.52663          1533.38540          1848.85873          2099.80805          2285.63190          5591.85080          1004.35195          5367.75558           562.28627           662.59825          1567.26498          1105.34419          7467.49759          2433.90315           914.74649          1625.30983          4265.98488          3390.51499           578.85693          4911.75588          1501.26497          2810.79076          1080.68998          3683.26352          4151.18350           534.94301          3446.18557          3880.17447          2691.96281          5841.96700           801.51871           739.28773          1099.82169          2645.33278           508.34794          9264.80696          4044.87083           562.51437          1820.79004          1781.82421          2187.72007           761.93150          1092.35180         13333.67532           694.10624          2527.01177          1366.49828           524.65183           803.76928          2638.01386          5305.40622          6005.40706          1775.89312          1923.38492          2622.57082          4583.56534           706.78940          1544.80342          2276.51992          1864.80557          5352.43641           660.60316          1095.97514          2801.13503           847.67494          3863.68901          2522.44517          6687.99455          3327.39672          1361.80209          1022.89418           672.64585          5645.08298          7171.88936          2227.82555           259.10329           363.40916           845.34299           899.51535          6300.41203          1333.07502          1972.53909          3504.00097          2429.18573          6157.06451          5896.20162           353.60070           578.74404           813.43228          1214.88581           637.64204          4132.16675          4072.65055          1440.48293           761.55288          1028.92881          2410.40316          3625.84730          2644.34166          2195.35131           944.16202          4043.06842          7421.24780           521.60654           656.46585          1672.36883          7441.63372          2324.41205          2977.37218          4596.08006           809.92236          1967.14748          4225.62962           529.65318          1448.72995          1122.43956          5794.32281           943.47786          1624.75445          3079.60057          5094.62740          5403.56273          5962.47044          4899.42921          4132.78063          1831.33784           899.77616          3391.75447         10401.17448           666.33497          2632.71507          2852.93718           299.25828          2204.75087          3819.99857          2801.92997           466.95786          4578.76083           763.37198          3440.47505          4200.13826          1761.25910           772.45632          3116.59635          3714.35408          5216.56674          6147.26210          5415.92401           674.40491           705.01329          1355.54428          4673.64713          1133.90998          2848.64767           978.81738           609.370