# vtk DataFile Version 3.0
Output from R2
ASCII
DATASET UNSTRUCTURED_GRID
POINTS       1414 double
     0.00000  2968.10000   0.
     1.54000  2966.60000   0.
     3.08000  2964.90000   0.
     4.61000  2964.10000   0.
     6.15000  2963.30000   0.
     7.69000  2962.60000   0.
     9.23000  2961.50000   0.
    10.76000  2960.70000   0.
    12.30000  2960.00000   0.
    13.84000  2959.30000   0.
    15.38000  2958.70000   0.
    16.91000  2958.10000   0.
    18.45000  2957.30000   0.
    19.99000  2956.60000   0.
    21.52000  2955.80000   0.
    23.06000  2955.00000   0.
    24.60000  2954.30000   0.
    26.14000  2953.50000   0.
    27.68000  2952.80000   0.
    29.21000  2951.90000   0.
    30.75000  2951.10000   0.
    32.29000  2950.20000   0.
    33.83000  2949.50000   0.
    35.36000  2948.70000   0.
    36.90000  2948.10000   0.
    38.44000  2947.30000   0.
    39.98000  2946.70000   0.
    41.51000  2946.10000   0.
    43.05000  2945.50000   0.
    44.59000  2945.10000   0.
    46.13000  2944.50000   0.
    47.66000  2944.10000   0.
    49.20000  2943.60000   0.
    50.74000  2943.40000   0.
    52.28000  2943.00000   0.
    53.81000  2942.50000   0.
    55.35000  2942.10000   0.
    56.89000  2941.60000   0.
    58.43000  2941.00000   0.
    59.96000  2940.60000   0.
    61.50000  2940.10000   0.
    63.04000  2939.50000   0.
    64.58000  2939.10000   0.
    66.11000  2939.20000   0.
    67.65000  2939.20000   0.
    69.19000  2939.10000   0.
    70.73000  2938.90000   0.
    72.26000  2938.60000   0.
    73.80000  2938.30000   0.
    75.34000  2938.50000   0.
    76.88000  2938.70000   0.
    78.41000  2938.60000   0.
    79.95000  2938.80000   0.
    81.49000  2938.90000   0.
    83.03000  2939.10000   0.
    84.56000  2939.10000   0.
     3.42000  2957.55000   0.
     8.97000  2954.51000   0.
    14.52000  2951.86000   0.
    20.07000  2949.38000   0.
    25.63000  2946.59000   0.
    31.18000  2943.67000   0.
    36.73000  2940.99000   0.
    42.28000  2938.62000   0.
    47.83000  2936.87000   0.
    53.39000  2935.46000   0.
    58.94000  2933.69000   0.
    64.49000  2931.95000   0.
    70.04000  2931.81000   0.
    75.60000  2931.36000   0.
    81.15000  2931.70000   0.
     0.51333  2967.60000   0.
     1.02667  2967.10000   0.
     2.05333  2966.03333   0.
     2.56667  2965.46667   0.
     3.59000  2964.63333   0.
     4.10000  2964.36667   0.
     5.12333  2963.83333   0.
     5.63667  2963.56667   0.
     6.66333  2963.06667   0.
     7.17667  2962.83333   0.
     8.20333  2962.23333   0.
     8.71667  2961.86667   0.
     9.74000  2961.23333   0.
    10.25000  2960.96667   0.
    11.27333  2960.46667   0.
    11.78667  2960.23333   0.
    12.81333  2959.76667   0.
    13.32667  2959.53333   0.
    14.35333  2959.10000   0.
    14.86667  2958.90000   0.
    15.89000  2958.50000   0.
    16.40000  2958.30000   0.
    17.42333  2957.83333   0.
    17.93667  2957.56667   0.
    18.96333  2957.06667   0.
    19.47667  2956.83333   0.
    20.50000  2956.33333   0.
    21.01000  2956.06667   0.
    22.03333  2955.53333   0.
    22.54667  2955.26667   0.
    23.57333  2954.76667   0.
    24.08667  2954.53333   0.
    25.11333  2954.03333   0.
    25.62667  2953.76667   0.
    26.65333  2953.26667   0.
    27.16667  2953.03333   0.
    28.19000  2952.50000   0.
    28.70000  2952.20000   0.
    29.72333  2951.63333   0.
    30.23667  2951.36667   0.
    31.26333  2950.80000   0.
    31.77667  2950.50000   0.
    32.80333  2949.96667   0.
    33.31667  2949.73333   0.
    34.34000  2949.23333   0.
    34.85000  2948.96667   0.
    35.87333  2948.50000   0.
    36.38667  2948.30000   0.
    37.41333  2947.83333   0.
    37.92667  2947.56667   0.
    38.95333  2947.10000   0.
    39.46667  2946.90000   0.
    40.49000  2946.50000   0.
    41.00000  2946.30000   0.
    42.02333  2945.90000   0.
    42.53667  2945.70000   0.
    43.56333  2945.36667   0.
    44.07667  2945.23333   0.
    45.10333  2944.90000   0.
    45.61667  2944.70000   0.
    46.64000  2944.36667   0.
    47.15000  2944.23333   0.
    48.17333  2943.93333   0.
    48.68667  2943.76667   0.
    49.71333  2943.53333   0.
    50.22667  2943.46667   0.
    51.25333  2943.26667   0.
    51.76667  2943.13333   0.
    52.79000  2942.83333   0.
    53.30000  2942.66667   0.
    54.32333  2942.36667   0.
    54.83667  2942.23333   0.
    55.86333  2941.93333   0.
    56.37667  2941.76667   0.
    57.40333  2941.40000   0.
    57.91667  2941.20000   0.
    58.94000  2940.86667   0.
    59.45000  2940.73333   0.
    60.47333  2940.43333   0.
    60.98667  2940.26667   0.
    62.01333  2939.90000   0.
    62.52667  2939.70000   0.
    63.55333  2939.36667   0.
    64.06667  2939.23333   0.
    65.34500  2939.15000   0.
    66.88000  2939.20000   0.
    68.42000  2939.15000   0.
    69.70333  2939.03333   0.
    70.21667  2938.96667   0.
    71.24000  2938.80000   0.
    71.75000  2938.70000   0.
    72.77333  2938.50000   0.
    73.28667  2938.40000   0.
    74.31333  2938.36667   0.
    74.82667  2938.43333   0.
    75.85333  2938.56667   0.
    76.36667  2938.63333   0.
    77.64500  2938.65000   0.
    78.92333  2938.66667   0.
    79.43667  2938.73333   0.
    80.72000  2938.85000   0.
    82.00333  2938.96667   0.
    82.51667  2939.03333   0.
    83.79500  2939.10000   0.
     0.08400  2959.57200   0.
     1.19600  2958.89800   0.
     2.30800  2958.22400   0.
     4.53000  2956.94200   0.
     5.64000  2956.33400   0.
     6.75000  2955.72600   0.
     7.86000  2955.11800   0.
    10.35750  2953.84750   0.
    11.74500  2953.18500   0.
    13.13250  2952.52250   0.
    15.90750  2951.24000   0.
    17.29500  2950.62000   0.
    18.68250  2950.00000   0.
    21.18200  2948.82200   0.
    22.29400  2948.26400   0.
    23.40600  2947.70600   0.
    24.51800  2947.14800   0.
    26.74000  2946.00600   0.
    27.85000  2945.42200   0.
    28.96000  2944.83800   0.
    30.07000  2944.25400   0.
    32.56750  2943.00000   0.
    33.95500  2942.33000   0.
    35.34250  2941.66000   0.
    38.11750  2940.39750   0.
    39.50500  2939.80500   0.
    40.89250  2939.21250   0.
    43.66750  2938.18250   0.
    45.05500  2937.74500   0.
    46.44250  2937.30750   0.
    49.22000  2936.51750   0.
    50.61000  2936.16500   0.
    52.00000  2935.81250   0.
    54.77750  2935.01750   0.
    56.16500  2934.57500   0.
    57.55250  2934.13250   0.
    60.32750  2933.25500   0.
    61.71500  2932.82000   0.
    63.10250  2932.38500   0.
    65.87750  2931.91500   0.
    67.26500  2931.88000   0.
    68.65250  2931.84500   0.
    71.43000  2931.69750   0.
    72.82000  2931.58500   0.
    74.21000  2931.47250   0.
    76.98750  2931.44500   0.
    78.37500  2931.53000   0.
    79.76250  2931.61500   0.
    82.53750  2931.75500   0.
    83.92500  2931.81000   0.
     6.60134  2937.05984   0.
    20.80435  2932.52560   0.
     3.78758  2946.36592   0.
    15.48523  2940.98228   0.
    29.30091  2934.50364   0.
    23.90594  2939.46561   0.
    40.87322  2931.62711   0.
     1.03219  2951.87344   0.
    10.83406  2946.32292   0.
    20.42668  2943.42459   0.
    48.80952  2930.83467   0.
    35.50309  2935.49258   0.
     7.54365  2949.73854   0.
    28.57967  2939.84283   0.
    15.90963  2945.83181   0.
    44.30452  2933.27820   0.
    -0.12722  2955.42655   0.
    24.47411  2943.04615   0.
     4.45051  2952.86019   0.
    40.01017  2935.22543   0.
    52.75593  2931.58993   0.
    13.75183  2934.27842   0.
    32.31862  2938.44653   0.
     0.40990  2931.04902   0.
    19.20708  2946.27332   0.
    57.19103  2930.55709   0.
    -0.97178  2947.27328   0.
    19.39705  2939.49643   0.
    11.08068  2950.12444   0.
    32.86215  2930.47012   0.
     7.41320  2941.82707   0.
    13.76382  2948.77946   0.
    27.17579  2942.79365   0.
     7.27112  2952.68663   0.
     2.71547  2954.94653   0.
    22.91159  2945.17994   0.
     2.00816  2941.86911   0.
    24.73355  2934.79062   0.
    47.86753  2934.00196   0.
    50.62083  2933.29089   0.
    60.15732  2930.28185   0.
    37.65425  2937.53830   0.
    44.64836  2929.77041   0.
    10.93416  2939.02064   0.
     4.26476  2949.76242   0.
    36.78915  2931.78219   0.
     7.36345  2946.13476   0.
    30.92470  2941.06806   0.
     6.19921  2931.10091   0.
    35.16618  2938.51604   0.
    16.36294  2929.87801   0.
    13.43632  2943.77014   0.
    42.64967  2935.50406   0.
    26.89596  2931.23775   0.
     1.59760  2936.73753   0.
    17.19200  2948.13905   0.
    -0.61497  2957.60981   0.
    26.49360  2937.36117   0.
     9.56799  2951.50953   0.
    17.55858  2943.77119   0.
    55.26825  2932.33039   0.
    22.03247  2936.46128   0.
    16.10828  2937.24515   0.
    22.48452  2941.40733   0.
    20.86327  2946.43955   0.
    29.71126  2937.35408   0.
    32.14062  2935.59882   0.
    45.26358  2935.44707   0.
    29.19256  2942.39482   0.
    25.22337  2944.48902   0.
    25.77440  2940.40763   0.
     5.12787  2951.33100   0.
     9.72036  2943.07255   0.
     0.63027  2944.64860   0.
     5.15669  2954.13690   0.
    33.80274  2940.56791   0.
     1.57076  2956.41210   0.
     9.31000  2947.97928   0.
     9.87726  2933.53233   0.
    53.60824  2932.85261   0.
    40.63972  2936.89193   0.
    13.47285  2946.23828   0.
    37.68088  2934.75035   0.
    46.32767  2931.88185   0.
    18.64740  2941.16071   0.
    13.09413  2950.32980   0.
    18.01744  2935.92389   0.
     0.55332  2948.73049   0.
     5.35766  2947.55011   0.
    42.44669  2933.52960   0.
    57.75733  2932.24094   0.
    23.68300  2931.83870   0.
    19.94397  2947.74183   0.
    61.81887  2931.15328   0.
[...]
POINT_DATA      1414
CELL_DATA      2568
SCALARS Resistivity(ohm.m) double 1
LOOKUP_TABLE default
          1100.65679          1786.47008          2411.31314          1047.81247           530.11541          2323.60433          1286.95616          1467.91603          1739.87573          2104.84444           778.89467          2050.37414           617.31676          2262.72891          2235.64140          1877.71893          1633.23536           481.25002           429.38876          2426.71111          1203.62915          1909.97640          1272.80930           624.80700          1907.05343           478.41450           310.46541          2269.08698          2216.57177          2372.90436           451.00681           492.25482          1707.08302           404.51652           388.94798          1662.71145           754.44863           881.81133          1222.46794          1545.96898          1896.91085           704.69216           408.52789          2285.70964           332.39820           424.50442          2828.73737           816.50296           636.61392           941.49691          2504.46611          1903.76463           986.77033          1644.71987          2236.43264           834.25718           362.36754          2336.51521           418.06880          1050.23177           541.75272          2130.67113           482.46284          1838.74032           306.39094          1649.75139          2156.90842          2055.47520           312.33163           626.17982           466.04613           803.59384          2074.02539           388.59033           369.18838          2863.23198          1416.42300           470.89717           395.27529          2652.22692          2526.30208          1407.81692           397.07537           426.24220          2065.56524           688.63010           340.94815          2129.98347           880.13103          1923.21090           986.64827           345.65823          2348.87919           412.03306          1777.03898          2028.74492           561.22896          1178.46830          2166.02754           930.06787          1563.95059           520.52254           582.59124           722.65190          1009.33263          1768.99304           505.03896           915.98832          2114.79903          1261.69844           431.94962          1111.37692          2470.90149          1816.90910          2061.65755          1366.12831          1035.01980          1557.51375           396.84527           332.95963          2386.59199          1388.98228          2902.04655           690.07476           530.13627          2098.29220          2376.58510          3159.12104          1816.60051          1401.09792          2108.53016          1035.07563          1245.17061          2229.86649           798.72073          2778.25732           429.92358          1730.79813           926.99832          1427.71431          1633.92705           497.18713           558.58321          1319.59672          1703.58936           533.00987           421.45063          1488.95407          1977.05594           504.89356          2344.51939          1954.80895           889.31570           710.76132          2298.57158           343.52407          1571.72485           414.13687          2209.77061          1304.40314          1130.72635           481.36739          2324.64896           463.45933          2280.55589           564.79813          1430.72610          1787.60209          1979.48594          1776.10159           731.26556           740.72768           631.58718           306.00057           377.31504           925.76074           709.71070          3508.16720          2606.08653          1077.05427          2296.80782          1373.65440          2034.26857           675.67986           535.39713           877.59659           764.11080           576.03740           867.14952          2393.68242          1215.24695          2339.09214           512.40223          2528.95048           304.03818           442.69261          2472.22508          2118.17265          1196.02225           375.54300           347.89473           832.63287          1791.19976          1486.76561          1771.63949           967.93563          3839.84961          2291.34458           359.58166          2287.88011          1325.75566           563.08097           379.57688           353.79499           560.41292          1146.52808          2291.50867           468.93738          1202.36866           468.71515           880.10380          1285.57458          1047.73760           369.81879           618.09243           553.96093           437.62872           472.62865          1346.67902           343.57819          1033.14871          2014.39168          1414.75779          2905.13174          2354.97397          1620.02527          2370.51726          1388.27918          1358.55023          1371.14814          2486.37965           649.30441           864.35426           384.00079          2373.95277           319.16767          1894.66132           470.64376           481.54008          2184.66291           314.44795          2012.03870          1689.37351           590.91135          2038.66933           917.24202           653.02106           627.96929           666.77423          2852.90765           590.75522          2258.28289           502.77126           393.74822           419.35803          1598.72663           369.10246          2379.65690           800.48785          2334.85417           980.24434          2111.37078          2398.59794          2256.79096           446.95834          1639.75650          2240.94464           459.32700           717.57729           667.83870           473.83522          1436.94881           321.65573           873.47637           896.07224          2422.28832           413.42193          2404.75403           615.15718           503.66850           930.13112           349.42286          2268.32780           564.42155          1981.81228          2342.31449          1404.48652           487.45444           405.96140           559.60458          1005.87494           407.05599          2436.51017          2458.97806           409.61705          1877.55543          1334.95867          1559.47873          1990.10889           435.43094           591.18550           595.01926           310.04281          2378.90265           785.18969           370.07664           494.32778          1123.09192          2732.06857           449.44828          3227.43890           379.02623           935.91670           494.37736           473.36135          1184.86671           439.08269          1453.30233           967.26463          2759.26032          1801.05324          2225.28764           445.98544          1540.45048           345.86144           366.71070           511.51801           575.72908          3099.87902           530.77525          2155.60901           459.47375          2164.90163           459.98312           525.18729          1854.10463          1147.38692          1076.04480           440.27504          2204.87608           485.16941          2375.36925           680.97188           414.50098           409.76501          2098.91701           462.83167          1557.32891           320.24800           357.10298           828.62389          1581.18530           875.17608           460.37571          1381.86311           445.07685           395.33451          2411.08575          1746.07114          2609.49141           465.83552          1337.76051          1430.80358           996.19540           320.69551          2556.09325           379.58778           471.60972           435.59838          2046.24342          1374.08139           474.00539          1846.03247          2332.95501           328.59497          1383.41429           559.43568          1311.55087           395.39667          1465.02433           603.27788           329.39461          1479.14964          1363.78193           473.21144           805.80377           495.93414          1313.39686          1784.66814           990.96797           573.32708           537.67067          1335.39890          1522.96269          1293.04149           779.71138           488.94819           844.70033          2345.95212          1646.53048          1483.06067          2168.85992           990.80955           647.38916          1117.91063          2451.63360           692.68829           865.06672           687.19433          1729.39713           958.23466           351.85361          2203.19288          1379.59016          1248.61108           306.93648          1595.45186           569.90962          1431.30705           491.38277          1305.22936           489.92700           468.66455          1911.15200           987.02528          1491.80771          1488.56589           649.60531          1939.19002          1270.39412          3511.76311           599.10142          1145.68162          2044.22043          1106.48049          1040.19039          1331.58889          1187.39737          4174.28718           754.44132          3245.33146          1565.50963          1452.79148          1186.77955          1647.15034           768.78937          2145.68034           817.04545          1319.39299           453.09551          1928.92743          1326.66173           778.74622          1287.78425          2231.57436           750.80586           855.76253          1154.34735          1685.35165          1643.85803           839.15124          1852.79093           827.05811           321.43053          1952.88964          3862.56877          1030.88486           401.82070          1470.48923           698.40571          1062.15411          1909.89123           445.02683           535.06348          2182.03461          2620.08953          1222.80629           403.40865           703.98520           733.87202          1276.49404          1112.83679           995.99582          1586.80029           705.43018          1535.04205           683.03597          1007.17288          2512.77488          1844.01389           673.00478           373.25577           591.32839          1239.56326           702.11855          1182.69623          3620.15073          1239.98494           340.59161           426.56607          1231.73954          1164.48993           837.05991           369.78765          3120.94651          1469.15698           345.70684          3269.46231          2254.40246           441.51715          1376.25498          1233.91533          1012.03666          1157.39539          1018.25271           472.69762          1564.21137          1501.07108          1518.30708          1262.31884           614.69273          1714.72968           483.02855          1191.81629           500.47466           454.01650           642.44863          1729.00195          1057.99985           827.96994           472.82752           365.74978          1723.28254          1106.29855          4257.29348          4632.62362          3586.16228          2184.86457          2055.90855          2105.75285          3437.71938          5310.46078           628.26433          4816.84719           501.58702          1131.07293          1443.34311           598.53499          4162.74007          4942.41913          1363.14419           417.45140          1908.59323          2682.21644           874.56820           843.00934          1508.16819          4634.24005          1249.99401          2721.59855          1032.65110           543.46864          1535.27793          1631.51603           397.52563          3376.25218           533.55854          1485.30599          5624.40654          4266.26358          1804.81404          5403.84191           373.33829           850.78631           484.97390          1901.48992          2637.43109          1801.38219          2863.85509          1751.69057          2625.42712           845.97658          1514.75428          1320.48418          1880.16801          9078.85822          3820.17761           970.25733          5044.97892          3697.32076           876.22018           712.68484          4881.79348          2883.56806          4721.16296          5259.68309          1537.10903           853.68635           650.28915           481.70167           821.75376          4242.99791          1662.38873          1041.07650          1637.99433           413.37286          1125.17334          1790.89394          3860.59011           944.81292           875.47462           718.91193           852.39850          1639.54007          1533.20512           771.81962          3348.96593          3011.56534          3231.80272          3279.94141          6225.09684          3968.74082          2591.55394           529.10555          5074.58113          1212.95124          1647.41889           658.12940          1479.66214           936.76574           458.98681          6360.49484          5326.56399          1563.09099          1596.66300          2733.87706          2273.46549          3330.76642          3204.30899           915.57326          1252.74923           651.37448           782.19039           371.81922           546.41486           770.74003           555.69313          1917.79230          3990.83469          3449.78938          1513.93592          2151.43545          1409.12316          1688.82913          8162.99914          5144.03430          1941.03800           388.24725           588.08680          5132.40715           734.58856          4166.38406          4645.83823          1098.92072          2442.19058           731.23615           993.78002          1119.90494          2307.32562          2404.47538          2762.36377           649.94906           460.12829          1243.82876           446.33864           650.80873           392.13188          3686.73705          5374.78242           415.20515          3089.05500           861.65608          2666.54037          1383.97810           656.72107           651.31779           681.90095           651.84977          1921.06376           757.29228          1398.12074           718.18328          2529.23899          1836.26623          3685.56292          2895.29492           662.92279           661.57090           422.86294          3041.85789           750.67032           765.18321          1295.13341          2794.12315           684.67882           890.13729           581.00212          1286.59306          1074.79396          1556.24256          1382.19247           642.53020           839.24922           816.05431          2625.74380          1972.66921          1321.31391          7695.59343          1105.74517           827.81984           919.27988          1470.14105          2396.96875          1543.69384          1573.01617          1476.95676          2837.53306           708.74084          7800.52745          1301.57905          2658.52502           784.99682          1242.15218          3892.09532          2912.17288           770.76331          1124.35059          3488.70698           454.34574           566.75786          1336.09618          3026.94910          5473.82939          1581.45689          7217.17317          1233.51519          1722.81164          1561.94095          1340.02960           473.42042           945.19048          2745.25004           711.84394          4353.13368           630.03229          3141.72819           801.34000           721.15168          1516.18981          2185.97068          2904.78923          5169.88020          2792.49315          1677.69115          1786.13603          1353.41858          5739.27442          7391.83290          1955.19293           986.49987          2982.38998           642.93756          1217.81302           900.44068          2615.84797          1251.94886          1119.83295           610.84728           639.70253          3958.60944           962.53580           796.64834          6504.45759          3876.54711          2602.98904          1452.87085          7415.92035           858.59124          2495.89537          2836.51870          2314.98646          1054.55135          3126.87149          5514.04429          1731.12302           393.64894           826.99048           880.10196          1681.82699          1770.08285           669.79064           705.36170          6346.71431           889.30983          1113.71159          2019.62312          4219.28715          4777.62596           420.75670          1336.15093           862.68855          1075.02363          1802.66880           746.16783           846.87213          1528.84447           829.71200           581.82136           372.05553           822.19266          2878.47994           495.31721          2841.36318          1673.61324          2046.93669          1348.15125          1925.34102          1611.32925           382.05884          3929.45328          1475.38184          1910.43755          1870.40027          2152.67026          4918.84927          1014.01163          5679.17245           649.21434           719.48411          1587.03821          1286.75488          7616.03860          2560.96967           870.15052          1803.55603          4070.13428          3545.75807           684.17363          4851.31885          1444.80602          2949.15840          1164.67076          3603.45441          3883.45607           513.56707          3551.59288          3873.62097          2499.56502          5166.10269           890.05392           800.07913          1274.15098          2454.42001           420.78658          8661.95198          3844.67462           710.90453          1813.18772          1624.60210          2100.99835           805.75636          1223.84374         11949.56873           673.44741          2479.24865          1400.32066           453.78481           792.33578          2578.70024          5293.34347          5783.36621          1573.89310          2680.04515          2673.58682          4614.26982           802.50719          1519.53979          2079.83525          1797.95884          5222.22758           663.54202          1263.66544          2848.76810           828.62794          4176.18298          2310.80914          7079.68433          2231.73719          1037.98909          1274.70276           640.43888          4874.63355          7506.97144          1860.41587           327.13935           367.11618           830.46116           868.94898          6435.94741          1542.90766          2184.00916          3211.98495          2499.75663          5932.79707          5485.09871           394.86360           719.19909           782.72829          1208.02443           649.26101          4447.29536          3957.10168          1295.86653           664.06005          1062.79496          2276.17359          3852.52749          2506.73079          2138.35818           836.69601          4502.22789          7555.92400           441.94776           692.01811          1780.06915          7819.22280          1876.53249          3151.05032          5181.80740           725.78033          1795.45281          4762.57425           607.72916          1475.15411          1066.51869          5550.55366           919.24968          1749.30125          2966.18464          5757.12582          4912.53319          6227.75775          4847.57619          4407.13427          1983.82516           911.14166          3550.97236          9827.56465           602.79922          2624.38107          2699.40255           350.58529          2664.61167          3312.46486          2564.40997           467.39525          4178.00146           809.65005          3541.90099          4196.78664          1911.07134           882.99484          3242.13478          3435.22756          5314.05650          6189.55173          5652.63772           698.81100           681.91865          1213.59655          4845.11859          1177.57671          2837.00071           883.94562           693.762