# vtk DataFile Version 3.0
Output from R2
ASCII
DATASET UNSTRUCTURED_GRID
POINTS       1414 double
     0.00000  2968.10000   0.
     1.54000  2966.60000   0.
     3.08000  2964.90000   0.
     4.61000  2964.10000   0.
     6.15000  2963.30000   0.
     7.69000  2962.60000   0.
     9.23000  2961.50000   0.
    10.76000  2960.70000   0.
    12.30000  2960.00000   0.
    13.84000  2959.30000   0.
    15.38000  2958.70000   0.
    16.91000  2958.10000   0.
    18.45000  2957.30000   0.
    19.99000  2956.60000   0.
    21.52000  2955.80000   0.
    23.06000  2955.00000   0.
    24.60000  2954.30000   0.
    26.14000  2953.50000   0.
    27.68000  2952.80000   0.
    29.21000  2951.90000   0.
    30.75000  2951.10000   0.
    32.29000  2950.20000   0.
    33.83000  2949.50000   0.
    35.36000  2948.70000   0.
    36.90000  2948.10000   0.
    38.44000  2947.30000   0.
    39.98000  2946.70000   0.
    41.51000  2946.10000   0.
    43.05000  2945.50000   0.
    44.59000  2945.10000   0.
    46.13000  2944.50000   0.
    47.66000  2944.10000   0.
    49.20000  2943.60000   0.
    50.74000  2943.40000   0.
    52.28000  2943.00000   0.
    53.81000  2942.50000   0.
    55.35000  2942.10000   0.
    56.89000  2941.60000   0.
    58.43000  2941.00000   0.
    59.96000  2940.60000   0.
    61.50000  2940.10000   0.
    63.04000  2939.50000   0.
    64.58000  2939.10000   0.
    66.11000  2939.20000   0.
    67.65000  2939.20000   0.
    69.19000  2939.10000   0.
    70.73000  2938.90000   0.
    72.26000  2938.60000   0.
    73.80000  2938.30000   0.
    75.34000  2938.50000   0.
    76.88000  2938.70000   0.
    78.41000  2938.60000   0.
    79.95000  2938.80000   0.
    81.49000  2938.90000   0.
    83.03000  2939.10000   0.
    84.56000  2939.10000   0.
     3.42000  2957.55000   0.
     8.97000  2954.51000   0.
    14.52000  2951.86000   0.
    20.07000  2949.38000   0.
    25.63000  2946.59000   0.
    31.18000  2943.67000   0.
    36.73000  2940.99000   0.
    42.28000  2938.62000   0.
    47.83000  2936.87000   0.
    53.39000  2935.46000   0.
    58.94000  2933.69000   0.
    64.49000  2931.95000   0.
    70.04000  2931.81000   0.
    75.60000  2931.36000   0.
    81.15000  2931.70000   0.
     0.51333  2967.60000   0.
     1.02667  2967.10000   0.
     2.05333  2966.03333   0.
     2.56667  2965.46667   0.
     3.59000  2964.63333   0.
     4.10000  2964.36667   0.
     5.12333  2963.83333   0.
     5.63667  2963.56667   0.
     6.66333  2963.06667   0.
     7.17667  2962.83333   0.
     8.20333  2962.23333   0.
     8.71667  2961.86667   0.
     9.74000  2961.23333   0.
    10.25000  2960.96667   0.
    11.27333  2960.46667   0.
    11.78667  2960.23333   0.
    12.81333  2959.76667   0.
    13.32667  2959.53333   0.
    14.35333  2959.10000   0.
    14.86667  2958.90000   0.
    15.89000  2958.50000   0.
    16.40000  2958.30000   0.
    17.42333  2957.83333   0.
    17.93667  2957.56667   0.
    18.96333  2957.06667   0.
    19.47667  2956.83333   0.
    20.50000  2956.33333   0.
    21.01000  2956.06667   0.
    22.03333  2955.53333   0.
    22.54667  2955.26667   0.
    23.57333  2954.76667   0.
    24.08667  2954.53333   0.
    25.11333  2954.03333   0.
    25.62667  2953.76667   0.
    26.65333  2953.26667   0.
    27.16667  2953.03333   0.
    28.19000  2952.50000   0.
    28.70000  2952.20000   0.
    29.72333  2951.63333   0.
    30.23667  2951.36667   0.
    31.26333  2950.80000   0.
    31.77667  2950.50000   0.
    32.80333  2949.96667   0.
    33.31667  2949.73333   0.
    34.34000  2949.23333   0.
    34.85000  2948.96667   0.
    35.87333  2948.50000   0.
    36.38667  2948.30000   0.
    37.41333  2947.83333   0.
    37.92667  2947.56667   0.
    38.95333  2947.10000   0.
    39.46667  2946.90000   0.
    40.49000  2946.50000   0.
    41.00000  2946.30000   0.
    42.02333  2945.90000   0.
    42.53667  2945.70000   0.
    43.56333  2945.36667   0.
    44.07667  2945.23333   0.
    45.10333  2944.90000   0.
    45.61667  2944.70000   0.
    46.64000  2944.36667   0.
    47.15000  2944.23333   0.
    48.17333  2943.93333   0.
    48.68667  2943.76667   0.
    49.71333  2943.53333   0.
    50.22667  2943.46667   0.
    51.25333  2943.26667   0.
    51.76667  2943.13333   0.
    52.79000  2942.83333   0.
    53.30000  2942.66667   0.
    54.32333  2942.36667   0.
    54.83667  2942.23333   0.
    55.86333  2941.93333   0.
    56.37667  2941.76667   0.
    57.40333  2941.40000   0.
    57.91667  2941.20000   0.
    58.94000  2940.86667   0.
    59.45000  2940.73333   0.
    60.47333  2940.43333   0.
    60.98667  2940.26667   0.
    62.01333  2939.90000   0.
    62.52667  2939.70000   0.
    63.55333  2939.36667   0.
    64.06667  2939.23333   0.
    65.34500  2939.15000   0.
    66.88000  2939.20000   0.
    68.42000  2939.15000   0.
    69.70333  2939.03333   0.
    70.21667  2938.96667   0.
    71.24000  2938.80000   0.
    71.75000  2938.70000   0.
    72.77333  2938.50000   0.
    73.28667  2938.40000   0.
    74.31333  2938.36667   0.
    74.82667  2938.43333   0.
    75.85333  2938.56667   0.
    76.36667  2938.63333   0.
    77.64500  2938.65000   0.
    78.92333  2938.66667   0.
    79.43667  2938.73333   0.
    80.72000  2938.85000   0.
    82.00333  2938.96667   0.
    82.51667  2939.03333   0.
    83.79500  2939.10000   0.
     0.08400  2959.57200   0.
     1.19600  2958.89800   0.
     2.30800  2958.22400   0.
     4.53000  2956.94200   0.
     5.64000  2956.33400   0.
     6.75000  2955.72600   0.
     7.86000  2955.11800   0.
    10.35750  2953.84750   0.
    11.74500  2953.18500   0.
    13.13250  2952.52250   0.
    15.90750  2951.24000   0.
    17.29500  2950.62000   0.
    18.68250  2950.00000   0.
    21.18200  2948.82200   0.
    22.29400  2948.26400   0.
    23.40600  2947.70600   0.
    24.51800  2947.14800   0.
    26.74000  2946.00600   0.
    27.85000  2945.42200   0.
    28.96000  2944.83800   0.
    30.07000  2944.25400   0.
    32.56750  2943.00000   0.
    33.95500  2942.33000   0.
    35.34250  2941.66000   0.
    38.11750  2940.39750   0.
    39.50500  2939.80500   0.
    40.89250  2939.21250   0.
    43.66750  2938.18250   0.
    45.05500  2937.74500   0.
    46.44250  2937.30750   0.
    49.22000  2936.51750   0.
    50.61000  2936.16500   0.
    52.00000  2935.81250   0.
    54.77750  2935.01750   0.
    56.16500  2934.57500   0.
    57.55250  2934.13250   0.
    60.32750  2933.25500   0.
    61.71500  2932.82000   0.
    63.10250  2932.38500   0.
    65.87750  2931.91500   0.
    67.26500  2931.88000   0.
    68.65250  2931.84500   0.
    71.43000  2931.69750   0.
    72.82000  2931.58500   0.
    74.21000  2931.47250   0.
    76.98750  2931.44500   0.
    78.37500  2931.53000   0.
    79.76250  2931.61500   0.
    82.53750  2931.75500   0.
    83.92500  2931.81000   0.
     6.60134  2937.05984   0.
    20.80435  2932.52560   0.
     3.78758  2946.36592   0.
    15.48523  2940.98228   0.
    29.30091  2934.50364   0.
    23.90594  2939.46561   0.
    40.87322  2931.62711   0.
     1.03219  2951.87344   0.
    10.83406  2946.32292   0.
    20.42668  2943.42459   0.
    48.80952  2930.83467   0.
    35.50309  2935.49258   0.
     7.54365  2949.73854   0.
    28.57967  2939.84283   0.
    15.90963  2945.83181   0.
    44.30452  2933.27820   0.
    -0.12722  2955.42655   0.
    24.47411  2943.04615   0.
     4.45051  2952.86019   0.
    40.01017  2935.22543   0.
    52.75593  2931.58993   0.
    13.75183  2934.27842   0.
    32.31862  2938.44653   0.
     0.40990  2931.04902   0.
    19.20708  2946.27332   0.
    57.19103  2930.55709   0.
    -0.97178  2947.27328   0.
    19.39705  2939.49643   0.
    11.08068  2950.12444   0.
    32.86215  2930.47012   0.
     7.41320  2941.82707   0.
    13.76382  2948.77946   0.
    27.17579  2942.79365   0.
     7.27112  2952.68663   0.
     2.71547  2954.94653   0.
    22.91159  2945.17994   0.
     2.00816  2941.86911   0.
    24.73355  2934.79062   0.
    47.86753  2934.00196   0.
    50.62083  2933.29089   0.
    60.15732  2930.28185   0.
    37.65425  2937.53830   0.
    44.64836  2929.77041   0.
    10.93416  2939.02064   0.
     4.26476  2949.76242   0.
    36.78915  2931.78219   0.
     7.36345  2946.13476   0.
    30.92470  2941.06806   0.
     6.19921  2931.10091   0.
    35.16618  2938.51604   0.
    16.36294  2929.87801   0.
    13.43632  2943.77014   0.
    42.64967  2935.50406   0.
    26.89596  2931.23775   0.
     1.59760  2936.73753   0.
    17.19200  2948.13905   0.
    -0.61497  2957.60981   0.
    26.49360  2937.36117   0.
     9.56799  2951.50953   0.
    17.55858  2943.77119   0.
    55.26825  2932.33039   0.
    22.03247  2936.46128   0.
    16.10828  2937.24515   0.
    22.48452  2941.40733   0.
    20.86327  2946.43955   0.
    29.71126  2937.35408   0.
    32.14062  2935.59882   0.
    45.26358  2935.44707   0.
    29.19256  2942.39482   0.
    25.22337  2944.48902   0.
    25.77440  2940.40763   0.
     5.12787  2951.33100   0.
     9.72036  2943.07255   0.
     0.63027  2944.64860   0.
     5.15669  2954.13690   0.
    33.80274  2940.56791   0.
     1.57076  2956.41210   0.
     9.31000  2947.97928   0.
     9.87726  2933.53233   0.
    53.60824  2932.85261   0.
    40.63972  2936.89193   0.
    13.47285  2946.23828   0.
    37.68088  2934.75035   0.
    46.32767  2931.88185   0.
    18.64740  2941.16071   0.
    13.09413  2950.32980   0.
    18.01744  2935.92389   0.
     0.55332  2948.73049   0.
     5.35766  2947.55011   0.
    42.44669  2933.52960   0.
    57.75733  2932.24094   0.
    23.68300  2931.83870   0.
    19.94397  2947.74183   0.
    61.81887  2931.15328   0.
[...]
POINT_DATA      1414
CELL_DATA      2568
SCALARS Resistivity(ohm.m) double 1
LOOKUP_TABLE default
          1159.11625          1725.87732          2359.09511          1124.14390           515.98605          2286.30692          1327.63542          1469.58021          1683.38893          1971.15015           764.32365          1912.04718           578.69515          2379.10874          2340.15673          1778.31774          1581.02637           418.04684           505.78867          2453.11917          1251.27602          1791.15517          1265.96065           661.53362          1890.67750           520.22614           259.61134          2240.22554          2256.44751          2281.15479           524.24820           521.99477          1649.14275           388.66139           362.71695          1627.79143           717.19457           974.38458          1228.28128          1542.18509          1864.68546           670.07211           480.82771          2365.99193           334.79961           409.81987          2935.38630           820.27235           598.24862           949.00073          2605.07914          1894.70175          1012.94456          1593.16120          2178.47249           942.83855           361.87765          2241.52407           449.04243          1084.37475           527.88513          2205.95749           414.28682          1738.27295           263.43560          1586.41696          2150.56533          1939.25606           286.84473           768.54569           495.56192           775.69995          2119.42014           404.86250           309.87448          2880.22756          1388.53380           416.37141           330.30825          2775.66013          2649.40968          1415.24653           428.15337           427.70439          2113.58052           837.49780           335.71117          2151.35076           871.45534          1822.20211          1067.95904           364.40270          2284.71432           350.41338          1723.24582          2064.54434           526.28212          1205.74613          2251.98567          1024.74730          1506.98910           547.51045           650.32594           699.29189           976.71596          1724.80276           517.69605           940.69883          2036.42704          1276.78085           368.87610          1144.01840          2536.14428          1720.65971          2086.32825          1322.15029          1058.17049          1504.98541           470.20530           316.18322          2396.80120          1363.97234          2966.12296           732.10894           490.38688          2097.57360          2440.66025          3177.55799          1712.46637          1420.19838          2040.72649          1117.28512          1237.25311          2336.08471           819.97753          2788.48205           365.74997          1686.52883          1034.88107          1374.82414          1574.29175           527.69587           638.79136          1351.93005          1652.36218           577.43108           483.04476          1442.65864          1971.49478           571.84534          2244.35952          1964.17960           929.04604           669.64861          2369.78739           284.77981          1539.93209           383.81531          2275.36883          1281.67695          1160.22628           534.91451          2351.98025           495.01221          2171.08803           532.45066          1449.07705          1722.07887          1963.86580          1734.88089           695.33021           762.63009           711.49958           269.74300           415.98368           924.23773           852.05822          3399.66204          2638.15063          1125.87038          2330.44487          1377.79955          1981.38598           746.74971           537.31218           999.44447           906.88452           680.60774           855.20284          2513.60893          1218.93403          2464.93334           633.08651          2656.40244           267.88179           540.44071          2603.28737          2016.90309          1223.81803           432.69602           284.64740           811.45788          1693.52772          1437.82088          1702.26033          1069.01194          3669.09365          2202.07297           401.22182          2162.03353          1304.28405           605.30276           435.84131           334.63470           624.51643          1189.03280          2392.59837           487.78968          1229.59052           551.90100           869.74633          1294.99462          1108.63178           340.77845           621.03131           684.76198           375.44778           580.46824          1303.63003           319.21127          1047.99893          1917.18266          1381.76450          2879.02033          2437.13446          1570.56453          2473.43391          1386.37415          1352.80915          1344.89828          2603.34368           625.69541           996.49351           416.48763          2504.15292           265.18995          1814.31536           508.05628           415.86624          2056.70519           258.23321          1896.04560          1616.14361           719.63485          2011.87859           972.94039           614.50431           753.28396           682.69982          2822.92623           552.97249          2132.31850           453.83483           449.37204           464.13365          1545.82045           358.45937          2328.91326           944.14597          2273.50307           988.35062          1974.44225          2436.05510          2268.03190           451.97067          1575.32284          2114.08086           432.67715           676.30889           626.82698           432.63131          1389.21806           275.56438           941.78801           899.02414          2373.70539           497.39731          2465.56921           597.36466           451.49939           929.94886           301.57999          2375.42973           693.92962          1955.59058          2353.90202          1384.23890           555.45431           456.00683           679.00595          1027.67867           466.61685          2528.48864          2550.86108           380.86468          1860.10206          1307.66397          1505.73694          1993.71529           374.49642           728.24588           559.12011           289.63292          2350.97516           758.57169           329.68193           507.08754          1144.45330          2717.64864           468.13475          3162.72742           379.91267           936.80521           440.06391           572.93121          1205.05508           485.92005          1400.72861          1073.21191          2821.40395          1728.11495          2167.72758           532.35866          1497.52319           338.25682           395.95689           626.45194           588.55608          3075.01493           600.55295          2214.71049           394.84770          2119.84915           427.58377           591.08641          1833.32254          1184.36441          1010.19317           476.90016          2227.41032           424.69560          2482.48895           812.18058           361.85961           489.75628          2128.29390           518.20507          1506.16627           313.81812           393.03662           807.89913          1525.39462           885.05645           542.11030          1345.40329           507.62630           351.46572          2398.09560          1656.41220          2622.20749           417.83231          1305.15778          1390.47810          1009.28075           289.31748          2649.19269           395.77479           466.79019           398.07164          2071.32121          1344.08223           405.48999          1814.70804          2450.99667           266.56401          1344.17429           556.90927          1319.41418           461.63887          1441.30011           738.99758           331.23161          1428.23673          1401.29941           415.04183           787.73864           592.55367          1334.92456          1748.88513          1008.78151           542.23384           654.76427          1321.97487          1458.26141          1292.69739           885.77794           545.14921           967.35576          2327.85984          1575.97397          1445.42777          2252.79588          1003.25433           682.46308          1156.65225          2514.81128           650.68708           891.94842           671.64822          1642.43922           969.17672           381.25080          2261.00572          1371.82361          1263.88192           277.06253          1568.38892           548.05091          1388.87198           454.26479          1305.03314           441.90437           406.62701          1841.89734          1044.41743          1444.28930          1447.33142           615.17769          1938.05312          1300.35444          3421.93206           647.25143          1185.31956          1981.15920          1159.05262          1088.07046          1296.03011          1211.40605          3964.19376           875.56123          3213.45795          1508.54987          1447.63973          1217.39137          1604.50850           830.37094          2213.81989           949.44648          1324.97648           404.15992          1883.30163          1311.93524           911.97315          1304.54287          2136.11262           836.90436           845.99592          1175.52450          1643.22208          1573.33839           819.17705          1804.78541           884.00450           281.99904          1892.07276          3686.79196          1047.94005           420.16460          1448.61992           704.99813          1096.22576          1830.52460           540.29740           506.65623          2071.50678          2746.77315          1241.89153           346.16122           662.38052           776.01856          1273.05760          1133.40213          1092.51351          1526.44076           824.53199          1474.46145           785.57725          1073.92953          2528.96127          1808.43747           635.60562           318.38233           565.17074          1258.72071           788.88707          1214.01462          3478.09591          1253.06242           359.31037           511.66193          1249.32627          1202.66557           875.70231           410.59125          3060.42376          1408.16392           370.32176          3175.45838          2336.46749           397.08142          1360.05114          1245.12283          1098.07132          1180.04889          1096.27495           574.18826          1523.13837          1444.96450          1463.84064          1284.78541           725.64095          1639.58780           418.01872          1218.06399           605.99940           402.87093           741.09428          1647.54233          1123.14159           965.33134           414.34335           396.89780          1649.05209          1160.81178          4096.24694          4147.78213          3525.28081          2162.33387          1984.59157          2137.44654          3405.26806          5040.29882           661.14332          4323.16320           485.15553          1086.98787          1462.53362           702.79175          3513.42763          5097.11269          1360.23826           464.68993          2136.48577          2754.89958           766.37489           882.65337          1505.75438          4379.33076          1373.74333          2018.10170           948.12537           668.77952          1418.50181          1561.90160           483.60395          3501.72621           529.88320          1472.49884          5512.51815          4123.37596          1656.08908          4646.51847           299.11047           811.07157           501.01419          2062.09509          2721.29025          1902.69702          3011.29895          1887.74337          2540.86809           738.99277          1632.74547          1381.66884          1931.26611          8958.39364          3650.33018           933.78347          4690.34346          4219.72662           809.46912           673.53914          5047.15644          2669.98869          4432.24480          4638.63535          1474.68742           926.33840           616.04384           571.46724           856.39238          4238.90235          1743.43882          1024.48024          1612.05223           339.39115           970.84417          1810.91371          3620.91782          1028.49790           917.08123           686.35993           904.11421          1687.43290          1505.99144           833.21707          3436.55919          2881.79926          3325.62744          3609.17611          5675.72303          4366.28969          2697.18946           624.49214          4083.58653          1220.48476          1735.74710           638.13512          1434.96086           991.63498           387.78678          5788.77891          5117.39814          1593.33836          1636.64866          2829.12506          2478.88832          3160.25645          2941.96317           955.46513          1417.32452           616.67540           893.93639           415.01655           540.51134           761.44726           583.91638          2101.73228          4442.73408          3748.20459          1589.37822          2284.97186          1398.78843          1738.33218          8073.46399          4868.78155          2056.54967           431.28777           561.17172          5222.64967           729.11027          3951.43561          4408.42559           968.30907          2526.12285           722.14210           959.47448           979.57564          2538.51220          2636.19818          2630.09268           672.01171           567.85202           979.37575           377.01094           597.56946           466.80812          3709.54985          5416.04409           495.16767          2935.37165           925.19859          2496.91825          1100.69418           714.72422           631.06888           761.26211           700.23586          1987.63260           758.53512          1592.19776           712.10432          2352.78269          1778.74348          4301.48633          2445.66135           769.04899           592.88603           344.94788          3318.92852           747.73637           770.01164          1343.75919          2719.06127           774.82163           792.36430           532.81564          1325.01749          1286.91939          1807.87845          1454.58688           657.64344           717.96443           684.04689          2603.11929          1853.46747          1241.62337          7882.77967           990.38980           964.64851           919.56325          1791.98596          2425.51259          1544.09534          1607.22146          1887.06506          2610.11484           534.68799          7098.51238          1605.48350          2709.20312           867.35757           982.33164          4269.19047          2784.08886           758.01935          1148.13285          3505.21100           507.23752           496.00305          1320.28494          2556.89137          5581.63287          1507.04879          6963.36298          1466.75492          1830.94343          1581.52571          1058.82613           442.37936           770.55921          2898.56540           672.56414          4228.53115           670.32204          3405.54214           813.57143           902.01514          1500.80967          2126.49199          3143.55286          5340.37890          2599.03202          1427.20350          1781.10370          1344.22829          5227.36654          7285.75488          1912.28328           984.63317          2872.91084           670.32702           979.19991           836.13257          2932.18054           984.85180           973.04195           586.66932           658.89243          3701.25141          1148.39476           737.87512          6072.06562          4142.51033          2323.56697          1418.35608          7382.15849           801.97414          2898.68401          3157.85916          2225.80271          1275.33550          2977.76353          5547.16627          1819.70009           458.60944           700.96577           865.62962          1870.60923          1778.18643           738.08083           728.82867          6293.34000           830.46942          1274.18668          1813.56322          3987.26948          5122.98908           517.65052          1334.10807           883.87192          1055.31686          1860.90470           799.20941           842.55728          1506.76720           763.86951           656.17141           434.69465           825.74897          3029.62150           501.96039          2979.38899          1733.58394          2022.99205          1483.21326          1912.14419          1587.83764           445.93251          4789.12913          1485.07068          1889.38738          2085.31859          2329.50042          5470.98562          1033.85381          5222.80134           518.71616           659.51177          1563.32609          1005.53802          7458.56575          2633.13129           904.44348          1576.85793          4352.38245          3417.83986           616.45794          4802.96334          1424.60753          2750.78549          1051.37524          3495.36420          3999.43997           522.14981          3458.31363          3903.75797          2707.97264          5695.34589           802.45129           761.66991          1006.17815          2462.65572           478.68764          9603.23904          3911.88581           612.31851          1782.01053          1843.95045          2099.09105           758.19042           978.75725         13545.34492           723.71434          2466.53733          1359.74014           506.89531           780.86813          2608.66452          5429.29755          5988.67147          1858.65047          1992.11059          2584.68819          4356.20727           726.31261          1479.11306          2365.26957          1954.17363          5367.50881           634.67859           992.56615          2763.74578           863.64890          3777.12496          2619.06060          6672.92431          3288.84714          1386.61754          1080.52309           670.13727          5430.70700          7193.32533          2034.96721           247.20296           371.30597           810.24532           884.92184          6162.81156          1304.27817          2063.10702          3470.61270          2383.16224          6180.29425          5826.69402           361.08637           541.60327           827.47397          1261.95123           636.98410          4197.73542          4002.27313          1432.15433           781.65351           968.19824          2320.86316          3618.37377          2558.42061          2115.65685           983.91562          3928.18083          7623.04630           485.54893           690.88992          1721.11719          7696.29267          2291.91987          2945.24413          4686.93939           837.60403          2006.05054          4178.26685           525.36260          1509.17008          1132.93507          6002.82893           924.74729          1697.95554          3038.61453          5126.28971          5310.44231          5835.06504          4809.10357          4223.41621          1809.71821           957.39829          3404.53769         10764.44145           682.75002          2571.77700          2951.11550           288.24415          2292.83998          3841.16924          2863.01844           454.65348          4635.68594           791.60821          3451.41550          4327.65262          1778.05196           765.94684          3026.01393          3664.96146          5190.50215          5975.48979          5245.02700           662.54603           685.79357          1349.41547          4947.09405          1124.85494          2776.36048           992.23095           606.664