# vtk DataFile Version 3.0
Output from R2
ASCII
DATASET UNSTRUCTURED_GRID
POINTS       1414 double
     0.00000  2968.10000   0.
     1.54000  2966.60000   0.
     3.08000  2964.90000   0.
     4.61000  2964.10000   0.
     6.15000  2963.30000   0.
     7.69000  2962.60000   0.
     9.23000  2961.50000   0.
    10.76000  2960.70000   0.
    12.30000  2960.00000   0.
    13.84000  2959.30000   0.
    15.38000  2958.70000   0.
    16.91000  2958.10000   0.
    18.45000  2957.30000   0.
    19.99000  2956.60000   0.
    21.52000  2955.80000   0.
    23.06000  2955.00000   0.
    24.60000  2954.30000   0.
    26.14000  2953.50000   0.
    27.68000  2952.80000   0.
    29.21000  2951.90000   0.
    30.75000  2951.10000   0.
    32.29000  2950.20000   0.
    33.83000  2949.50000   0.
    35.36000  2948.70000   0.
    36.90000  2948.10000   0.
    38.44000  2947.30000   0.
    39.98000  2946.70000   0.
    41.51000  2946.10000   0.
    43.05000  2945.50000   0.
    44.59000  2945.10000   0.
    46.13000  2944.50000   0.
    47.66000  2944.10000   0.
    49.20000  2943.60000   0.
    50.74000  2943.40000   0.
    52.28000  2943.00000   0.
    53.81000  2942.50000   0.
    55.35000  2942.10000   0.
    56.89000  2941.60000   0.
    58.43000  2941.00000   0.
    59.96000  2940.60000   0.
    61.50000  2940.10000   0.
    63.04000  2939.50000   0.
    64.58000  2939.10000   0.
    66.11000  2939.20000   0.
    67.65000  2939.20000   0.
    69.19000  2939.10000   0.
    70.73000  2938.90000   0.
    72.26000  2938.60000   0.
    73.80000  2938.30000   0.
    75.34000  2938.50000   0.
    76.88000  2938.70000   0.
    78.41000  2938.60000   0.
    79.95000  2938.80000   0.
    81.49000  2938.90000   0.
    83.03000  2939.10000   0.
    84.56000  2939.10000   0.
     3.42000  2957.55000   0.
     8.97000  2954.51000   0.
    14.52000  2951.86000   0.
    20.07000  2949.38000   0.
    25.63000  2946.59000   0.
    31.18000  2943.67000   0.
    36.73000  2940.99000   0.
    42.28000  2938.62000   0.
    47.83000  2936.87000   0.
    53.39000  2935.46000   0.
    58.94000  2933.69000   0.
    64.49000  2931.95000   0.
    70.04000  2931.81000   0.
    75.60000  2931.36000   0.
    81.15000  2931.70000   0.
     0.51333  2967.60000   0.
     1.02667  2967.10000   0.
     2.05333  2966.03333   0.
     2.56667  2965.46667   0.
     3.59000  2964.63333   0.
     4.10000  2964.36667   0.
     5.12333  2963.83333   0.
     5.63667  2963.56667   0.
     6.66333  2963.06667   0.
     7.17667  2962.83333   0.
     8.20333  2962.23333   0.
     8.71667  2961.86667   0.
     9.74000  2961.23333   0.
    10.25000  2960.96667   0.
    11.27333  2960.46667   0.
    11.78667  2960.23333   0.
    12.81333  2959.76667   0.
    13.32667  2959.53333   0.
    14.35333  2959.10000   0.
    14.86667  2958.90000   0.
    15.89000  2958.50000   0.
    16.40000  2958.30000   0.
    17.42333  2957.83333   0.
    17.93667  2957.56667   0.
    18.96333  2957.06667   0.
    19.47667  2956.83333   0.
    20.50000  2956.33333   0.
    21.01000  2956.06667   0.
    22.03333  2955.53333   0.
    22.54667  2955.26667   0.
    23.57333  2954.76667   0.
    24.08667  2954.53333   0.
    25.11333  2954.03333   0.
    25.62667  2953.76667   0.
    26.65333  2953.26667   0.
    27.16667  2953.03333   0.
    28.19000  2952.50000   0.
    28.70000  2952.20000   0.
    29.72333  2951.63333   0.
    30.23667  2951.36667   0.
    31.26333  2950.80000   0.
    31.77667  2950.50000   0.
    32.80333  2949.96667   0.
    33.31667  2949.73333   0.
    34.34000  2949.23333   0.
    34.85000  2948.96667   0.
    35.87333  2948.50000   0.
    36.38667  2948.30000   0.
    37.41333  2947.83333   0.
    37.92667  2947.56667   0.
    38.95333  2947.10000   0.
    39.46667  2946.90000   0.
    40.49000  2946.50000   0.
    41.00000  2946.30000   0.
    42.02333  2945.90000   0.
    42.53667  2945.70000   0.
    43.56333  2945.36667   0.
    44.07667  2945.23333   0.
    45.10333  2944.90000   0.
    45.61667  2944.70000   0.
    46.64000  2944.36667   0.
    47.15000  2944.23333   0.
    48.17333  2943.93333   0.
    48.68667  2943.76667   0.
    49.71333  2943.53333   0.
    50.22667  2943.46667   0.
    51.25333  2943.26667   0.
    51.76667  2943.13333   0.
    52.79000  2942.83333   0.
    53.30000  2942.66667   0.
    54.32333  2942.36667   0.
    54.83667  2942.23333   0.
    55.86333  2941.93333   0.
    56.37667  2941.76667   0.
    57.40333  2941.40000   0.
    57.91667  2941.20000   0.
    58.94000  2940.86667   0.
    59.45000  2940.73333   0.
    60.47333  2940.43333   0.
    60.98667  2940.26667   0.
    62.01333  2939.90000   0.
    62.52667  2939.70000   0.
    63.55333  2939.36667   0.
    64.06667  2939.23333   0.
    65.34500  2939.15000   0.
    66.88000  2939.20000   0.
    68.42000  2939.15000   0.
    69.70333  2939.03333   0.
    70.21667  2938.96667   0.
    71.24000  2938.80000   0.
    71.75000  2938.70000   0.
    72.77333  2938.50000   0.
    73.28667  2938.40000   0.
    74.31333  2938.36667   0.
    74.82667  2938.43333   0.
    75.85333  2938.56667   0.
    76.36667  2938.63333   0.
    77.64500  2938.65000   0.
    78.92333  2938.66667   0.
    79.43667  2938.73333   0.
    80.72000  2938.85000   0.
    82.00333  2938.96667   0.
    82.51667  2939.03333   0.
    83.79500  2939.10000   0.
     0.08400  2959.57200   0.
     1.19600  2958.89800   0.
     2.30800  2958.22400   0.
     4.53000  2956.94200   0.
     5.64000  2956.33400   0.
     6.75000  2955.72600   0.
     7.86000  2955.11800   0.
    10.35750  2953.84750   0.
    11.74500  2953.18500   0.
    13.13250  2952.52250   0.
    15.90750  2951.24000   0.
    17.29500  2950.62000   0.
    18.68250  2950.00000   0.
    21.18200  2948.82200   0.
    22.29400  2948.26400   0.
    23.40600  2947.70600   0.
    24.51800  2947.14800   0.
    26.74000  2946.00600   0.
    27.85000  2945.42200   0.
    28.96000  2944.83800   0.
    30.07000  2944.25400   0.
    32.56750  2943.00000   0.
    33.95500  2942.33000   0.
    35.34250  2941.66000   0.
    38.11750  2940.39750   0.
    39.50500  2939.80500   0.
    40.89250  2939.21250   0.
    43.66750  2938.18250   0.
    45.05500  2937.74500   0.
    46.44250  2937.30750   0.
    49.22000  2936.51750   0.
    50.61000  2936.16500   0.
    52.00000  2935.81250   0.
    54.77750  2935.01750   0.
    56.16500  2934.57500   0.
    57.55250  2934.13250   0.
    60.32750  2933.25500   0.
    61.71500  2932.82000   0.
    63.10250  2932.38500   0.
    65.87750  2931.91500   0.
    67.26500  2931.88000   0.
    68.65250  2931.84500   0.
    71.43000  2931.69750   0.
    72.82000  2931.58500   0.
    74.21000  2931.47250   0.
    76.98750  2931.44500   0.
    78.37500  2931.53000   0.
    79.76250  2931.61500   0.
    82.53750  2931.75500   0.
    83.92500  2931.81000   0.
     6.60134  2937.05984   0.
    20.80435  2932.52560   0.
     3.78758  2946.36592   0.
    15.48523  2940.98228   0.
    29.30091  2934.50364   0.
    23.90594  2939.46561   0.
    40.87322  2931.62711   0.
     1.03219  2951.87344   0.
    10.83406  2946.32292   0.
    20.42668  2943.42459   0.
    48.80952  2930.83467   0.
    35.50309  2935.49258   0.
     7.54365  2949.73854   0.
    28.57967  2939.84283   0.
    15.90963  2945.83181   0.
    44.30452  2933.27820   0.
    -0.12722  2955.42655   0.
    24.47411  2943.04615   0.
     4.45051  2952.86019   0.
    40.01017  2935.22543   0.
    52.75593  2931.58993   0.
    13.75183  2934.27842   0.
    32.31862  2938.44653   0.
     0.40990  2931.04902   0.
    19.20708  2946.27332   0.
    57.19103  2930.55709   0.
    -0.97178  2947.27328   0.
    19.39705  2939.49643   0.
    11.08068  2950.12444   0.
    32.86215  2930.47012   0.
     7.41320  2941.82707   0.
    13.76382  2948.77946   0.
    27.17579  2942.79365   0.
     7.27112  2952.68663   0.
     2.71547  2954.94653   0.
    22.91159  2945.17994   0.
     2.00816  2941.86911   0.
    24.73355  2934.79062   0.
    47.86753  2934.00196   0.
    50.62083  2933.29089   0.
    60.15732  2930.28185   0.
    37.65425  2937.53830   0.
    44.64836  2929.77041   0.
    10.93416  2939.02064   0.
     4.26476  2949.76242   0.
    36.78915  2931.78219   0.
     7.36345  2946.13476   0.
    30.92470  2941.06806   0.
     6.19921  2931.10091   0.
    35.16618  2938.51604   0.
    16.36294  2929.87801   0.
    13.43632  2943.77014   0.
    42.64967  2935.50406   0.
    26.89596  2931.23775   0.
     1.59760  2936.73753   0.
    17.19200  2948.13905   0.
    -0.61497  2957.60981   0.
    26.49360  2937.36117   0.
     9.56799  2951.50953   0.
    17.55858  2943.77119   0.
    55.26825  2932.33039   0.
    22.03247  2936.46128   0.
    16.10828  2937.24515   0.
    22.48452  2941.40733   0.
    20.86327  2946.43955   0.
    29.71126  2937.35408   0.
    32.14062  2935.59882   0.
    45.26358  2935.44707   0.
    29.19256  2942.39482   0.
    25.22337  2944.48902   0.
    25.77440  2940.40763   0.
     5.12787  2951.33100   0.
     9.72036  2943.07255   0.
     0.63027  2944.64860   0.
     5.15669  2954.13690   0.
    33.80274  2940.56791   0.
     1.57076  2956.41210   0.
     9.31000  2947.97928   0.
     9.87726  2933.53233   0.
    53.60824  2932.85261   0.
    40.63972  2936.89193   0.
    13.47285  2946.23828   0.
    37.68088  2934.75035   0.
    46.32767  2931.88185   0.
    18.64740  2941.16071   0.
    13.09413  2950.32980   0.
    18.01744  2935.92389   0.
     0.55332  2948.73049   0.
     5.35766  2947.55011   0.
    42.44669  2933.52960   0.
    57.75733  2932.24094   0.
    23.68300  2931.83870   0.
    19.94397  2947.74183   0.
    61.81887  2931.15328   0.
[...]
POINT_DATA      1414
CELL_DATA      2568
SCALARS Resistivity(ohm.m) double 1
LOOKUP_TABLE default
          1131.05914          1743.37255          2467.27969          1089.51607           529.49657          2312.95482          1256.83088          1447.07270          1685.01728          2122.35224           789.26303          2081.66521           621.09786          2260.78288          2224.02096          1905.75982          1585.50439           467.32587           456.94541          2367.33793          1174.47774          1919.66405          1263.91024           660.86512          1861.74638           491.05684           265.21706          2258.42481          2174.32560          2440.43651           479.87300           500.20824          1661.70870           413.61953           351.01403          1671.33150           722.40679           945.24998          1222.22038          1536.46250          1839.95594           703.93640           421.35591          2261.04339           311.07906           428.35142          2886.52304           837.76831           636.97350           916.47286          2529.87180          1855.08077          1000.69725          1594.68025          2394.63669           905.66557           336.31954          2372.50399           437.18672          1065.39780           553.70026          2107.66986           459.05539          1848.74498           265.84474          1599.45377          2139.03811          2052.46943           276.90900           687.18754           470.35078           773.62531          2034.28126           370.17954           319.00422          2838.83221          1396.22595           467.72874           345.07817          2707.39716          2569.70788          1383.04364           412.06464           431.15954          2033.55851           758.10833           313.75868          2081.74418           852.30316          1901.55719          1036.56075           332.59691          2354.72499           364.89479          1810.80063          1988.62527           562.90557          1183.30009          2144.32289           989.99639          1529.69770           550.51521           637.79393           734.39835           989.78819          1713.80618           512.70237           938.50313          2234.01111          1257.93220           385.32412          1080.65318          2447.71389          1791.75485          2014.66761          1342.32549          1005.58582          1514.63469           413.71503           300.14197          2336.22783          1369.25057          2925.66763           744.29448           536.56796          2073.86129          2347.36939          3163.42479          1807.73465          1375.24435          2094.30891          1079.62508          1239.22530          2223.70148           835.65753          2740.24798           385.18653          1677.52317           991.39704          1396.07974          1591.66188           518.74421           612.60601          1289.65771          1655.08968           573.17190           442.67697          1457.20449          1938.66730           545.65139          2450.00544          1907.65144           926.26325           689.95599          2282.91683           292.24023          1558.15811           422.44495          2177.02889          1288.37445          1135.53918           508.98392          2279.31127           466.58337          2313.40283           572.22809          1407.94681          1814.35876          1923.95423          1726.11091           720.07628           783.76335           694.65737           265.73264           389.28233           905.86377           783.74904          3426.41279          2570.71279          1102.72661          2274.95871          1350.84246          2008.35509           739.12349           559.06524           949.16846           841.84820           636.03376           852.29535          2403.50061          1215.39125          2348.78689           558.23850          2567.13626           265.48234           474.44520          2507.22321          2115.95933          1206.64331           387.07489           295.73548           806.42185          1772.69390          1448.39862          1788.83639          1025.89223          3722.93699          2434.06363           362.70227          2374.60535          1307.78765           608.92850           395.21371           319.00595           614.89538          1166.74465          2279.12861           472.15695          1211.87626           504.93128           853.00686          1280.71010          1082.67344           330.23221           655.51304           605.35609           393.94276           508.07920          1327.06121           319.98205          1009.30779          2093.99802          1390.02715          2850.09007          2338.53398          1606.40202          2368.78907          1368.07320          1346.07814          1349.82123          2505.73961           668.54476           938.41673           374.55888          2392.63415           269.95617          1862.87023           479.65339           455.21619          2210.79102           265.08821          2071.63168          1675.49821           653.31877          2009.50415           961.24407           643.28863           695.80985           710.85451          2792.96920           601.62887          2307.43597           498.70678           396.98884           439.07095          1580.40396           337.93037          2375.15367           877.57337          2483.46157           962.04463          2176.11094          2358.05318          2240.40723           449.56054          1601.33165          2342.85566           457.83449           689.08915           656.63476           468.42215          1402.80670           275.32994           927.46934           899.28716          2437.52649           437.82338          2372.01228           641.54892           479.86999           904.44728           302.24590          2265.73905           611.96187          1946.14860          2309.06643          1387.37979           523.46896           405.20736           617.82456           978.00913           428.55104          2437.91647          2453.23658           425.73104          1824.13358          1314.29300          1518.93326          1938.50175           392.94683           650.63364           607.61802           278.91742          2349.00634           774.39782           325.80075           491.54978          1098.87158          2676.24515           452.39059          3164.33678           376.09484           923.90860           462.36821           513.29758          1193.01849           453.97133          1417.65470          1025.83127          2762.28430          1762.93984          2221.73821           465.27945          1519.50682           331.05729           372.64816           559.90574           613.60821          3060.19027           581.51666          2137.22444           422.21901          2152.67375           482.08211           569.50724          1802.07031          1161.77092          1049.87577           456.05179          2188.65851           463.32899          2373.03463           754.01840           368.00071           435.08898          2073.70751           484.82291          1533.57423           296.96839           354.46410           810.98242          1534.49163           891.11068           476.35890          1354.82665           450.45000           350.80037          2357.26694          1730.98601          2563.41614           460.75500          1316.48393          1400.04965           969.01453           288.72717          2562.55644           384.38809           471.84672           449.11026          2013.94328          1350.23513           440.62929          1790.39202          2339.01535           276.63297          1355.71796           588.40949          1295.55966           416.24924          1446.03631           656.04085           314.04200          1440.58460          1336.95250           439.60443           803.91055           520.23151          1285.07328          1732.14830           993.23970           588.21136           575.16405          1321.77320          1482.63806          1286.78548           852.33094           515.02516           919.13597          2320.64835          1616.90569          1460.92457          2153.31033           982.49141           672.37943          1088.16297          2429.13947           671.98745           860.14905           710.61648          1709.06435           957.34357           351.83246          2188.51329          1364.67697          1250.22558           272.79570          1589.20857           591.83645          1398.90264           507.71214          1298.65355           492.88058           436.91564          1976.81357          1025.23705          1456.91872          1463.98606           655.52411          1887.99613          1239.76156          3446.77711           647.65276          1164.59864          2152.32024          1133.54707          1067.29501          1311.91203          1197.00942          4037.23939           830.18890          3212.52425          1535.43133          1431.27736          1155.86677          1644.98013           827.45618          2114.25472           894.06396          1307.50423           455.60384          1891.00046          1312.24109           856.31920          1264.16640          2245.23143           818.59864           851.01504          1136.01767          1694.31581          1618.47114           811.60919          1809.41687           879.96500           285.05776          1920.37719          3742.36255          1025.34300           413.72289          1450.69930           736.22637          1035.81620          1967.68244           478.87414           558.83769          2194.26608          2682.25919          1203.56826           355.42306           674.23943           787.01726          1269.08989          1102.39200          1048.57575          1539.90962           779.11392          1492.32407           753.49473          1048.46403          2465.70222          1797.05001           671.30705           324.15519           612.49932          1242.24106           769.91175          1193.64276          3515.98030          1241.93120           332.59547           455.70477          1217.50283          1180.88884           879.60579           367.00635          3053.70412          1434.40861           337.81358          3186.09303          2243.94028           441.40429          1361.35746          1235.27606          1061.00555          1150.43475          1063.73552           501.24911          1546.48680          1460.75965          1476.21529          1235.05594           680.50780          1707.68390           468.12966          1163.86846           530.54185           451.65220           709.61138          1697.76005          1094.59218           904.72691           463.64423           357.25333          1686.47902          1134.37242          4212.85644          4321.00466          3578.18977          2127.17219          2094.13051          2170.75007          3425.40117          5308.61425           611.34789          4541.36017           476.60090          1105.66857          1388.47111           694.00341          3493.14974          4927.83893          1385.21252           420.30747          2015.92395          2765.72804           835.71136           867.46635          1515.00340          4500.60292          1413.86372          2317.15567          1001.95141           639.16892          1404.09961          1635.23135           424.22837          3478.86428           530.46922          1456.73512          5428.43191          4217.40949          1753.60103          4970.92598           316.29674           826.54138           496.89288          1965.05502          2693.36671          1774.90184          3131.61620          1818.93808          2608.65047           782.99897          1516.47222          1295.98568          1899.22360          8510.44723          3759.67309           956.02322          4835.32289          3994.15105           879.43227           693.07921          4926.77625          2759.51299          4585.98341          4951.87718          1519.21566           865.80587           630.07740           532.32823           819.12727          4306.04524          1633.63735          1023.35001          1644.35685           356.96205          1065.95516          1892.48540          3711.24847          1077.84529           922.33046           678.07504           890.99660          1674.56465          1509.54350           886.13867          3418.78305          2893.44123          3306.37370          3467.88081          5902.15608          4123.65602          2664.07450           584.55655          4539.22843          1240.24695          1631.89277           627.45887          1477.65638           937.90145           402.56840          6080.50037          5225.86148          1563.91070          1607.65688          2828.37105          2490.88325          3276.50528          3189.92075           915.79379          1366.83061           628.24356           784.46534           415.81002           526.49005           759.75632           636.90018          2026.35351          4206.62231          3542.96532          1496.54625          2263.39610          1457.92792          1685.46904          8055.71628          4970.41694          1981.03212           425.52144           556.89939          5076.50361           704.23443          4038.56848          4516.24443          1045.81707          2582.30684           763.25251           944.23974          1063.17861          2478.37542          2563.71455          2719.21041           693.81371           523.54305          1152.44513           392.11477           638.59039           409.86335          3727.66142          5483.12258           439.54405          2957.66205           872.76727          2594.04605          1282.81271           664.82896           659.43493           728.59792           668.40245          2012.55425           783.85921          1441.37567           720.94816          2404.37518          1886.37836          3993.58317          2729.50987           728.66948           616.29075           362.49007          3186.66634           747.75232           813.70922          1236.90304          2660.54067           657.68794           868.24835           560.10494          1236.62082          1196.49579          1637.66724          1361.41439           656.37517           826.46338           734.29423          2628.00817          1977.91147          1281.31284          7664.32903          1056.33985           869.66503           862.94141          1639.30407          2607.29461          1534.83953          1571.94297          1591.73002          2749.68434           647.48785          7536.88634          1492.76877          2712.44616           806.31115          1153.83256          4127.19084          2892.65971           818.92124          1085.44732          3521.70445           452.45150           498.45648          1346.34185          2834.90991          5529.02445          1554.79418          7028.10523          1306.25329          1761.40444          1558.14723          1239.23642           461.44240           830.00930          2862.58981           673.93404          4367.32536           688.33824          3330.34668           780.26977           751.50703          1543.01995          2177.80861          3066.00006          5026.31388          2674.46929          1593.54870          1792.17774          1284.04194          5637.88183          7334.25829          2043.52972          1026.65579          2851.34432           655.96841          1132.74420           896.72571          2771.89602          1157.12706          1023.00606           607.48446           658.28948          3723.84558          1017.90497           803.51856          6155.01205          4056.72556          2565.13934          1408.21968          7347.68493           858.78396          2750.85133          3070.16709          2315.04822          1123.47536          3073.89262          5336.80412          1715.40133           415.85373           756.68903           825.24970          1839.37218          1745.79276           690.04826           728.12671          6268.32873           858.75238          1171.88143          1907.95440          4132.91579          5000.68899           476.74080          1339.12183           855.40881          1048.37864          1961.60464           752.73933           802.38966          1509.64057           791.09724           655.10519           427.74948           768.15839          3005.38433           514.37373          2945.88905          1685.92743          2083.93839          1381.48570          1965.06391          1614.76934           434.19782          4151.98775          1541.40268          1984.65721          2039.50223          2230.34744          5256.01663          1027.65747          5400.68095           551.65478           703.64037          1589.12881          1186.38972          7494.90201          2585.39317           872.03024          1663.27134          4137.97838          3485.51438           595.82430          4924.25293          1529.70516          2925.31142          1093.16651          3562.80004          3954.53884           498.92727          3438.83714          3774.44803          2559.63943          5457.05056           873.42857           748.55112          1177.96856          2536.94511           426.74372          9032.66760          3814.39769           611.62437          1819.68866          1699.71421          2018.02066           806.72516          1137.74958         12668.12258           671.59789          2480.99090          1377.91970           465.09381           839.88860          2565.03691          5351.12757          5954.73451          1704.88118          2350.80794          2615.08362          4449.18028           750.97876          1457.84495          2176.79296          1849.21722          5355.85171           650.87990          1167.03493          2869.24240           826.25308          4223.22172          2544.26209          6783.16804          2650.31109          1256.05625          1146.25822           658.24900          5196.42108          7255.59316          2026.71262           290.11486           397.53988           824.56250           832.83643          6256.90171          1459.88633          2160.23766          3368.26264          2413.25030          5892.62123          5639.57347           371.20016           597.36756           784.76286          1182.81525           663.40949          4242.51766          4099.12792          1404.11558           686.56383          1022.96475          2385.30023          3765.44979          2563.32093          2120.85051           879.15884          4321.01718          7533.81301           443.67811           661.73969          1815.41930          7616.67743          1976.74724          3085.28758          4806.76547           751.49450          1865.41885          4304.86272           532.87079          1457.96645          1067.36182          5728.82236           881.25455          1777.93887          2983.98931          5150.06162          5059.08513          5962.17043          4644.02004          4352.74741          1995.73341           932.13389          3548.80571         10163.22471           685.48698          2596.50294          2859.98751           300.44874          2478.88807          3528.12084          2719.47946           454.10215          4432.67257           779.91507          3514.26448          4228.98782          1867.49185           782.02540          3239.87332          3501.97272          5334.11906          6066.98283          5389.80085           655.98854           716.33109          1258.05947          4900.99898          1163.01119          2875.90239           859.42092           622.249