# vtk DataFile Version 3.0
Output from R2
ASCII
DATASET UNSTRUCTURED_GRID
POINTS       1414 double
     0.00000  2968.10000   0.
     1.54000  2966.60000   0.
     3.08000  2964.90000   0.
     4.61000  2964.10000   0.
     6.15000  2963.30000   0.
     7.69000  2962.60000   0.
     9.23000  2961.50000   0.
    10.76000  2960.70000   0.
    12.30000  2960.00000   0.
    13.84000  2959.30000   0.
    15.38000  2958.70000   0.
    16.91000  2958.10000   0.
    18.45000  2957.30000   0.
    19.99000  2956.60000   0.
    21.52000  2955.80000   0.
    23.06000  2955.00000   0.
    24.60000  2954.30000   0.
    26.14000  2953.50000   0.
    27.68000  2952.80000   0.
    29.21000  2951.90000   0.
    30.75000  2951.10000   0.
    32.29000  2950.20000   0.
    33.83000  2949.50000   0.
    35.36000  2948.70000   0.
    36.90000  2948.10000   0.
    38.44000  2947.30000   0.
    39.98000  2946.70000   0.
    41.51000  2946.10000   0.
    43.05000  2945.50000   0.
    44.59000  2945.10000   0.
    46.13000  2944.50000   0.
    47.66000  2944.10000   0.
    49.20000  2943.60000   0.
    50.74000  2943.40000   0.
    52.28000  2943.00000   0.
    53.81000  2942.50000   0.
    55.35000  2942.10000   0.
    56.89000  2941.60000   0.
    58.43000  2941.00000   0.
    59.96000  2940.60000   0.
    61.50000  2940.10000   0.
    63.04000  2939.50000   0.
    64.58000  2939.10000   0.
    66.11000  2939.20000   0.
    67.65000  2939.20000   0.
    69.19000  2939.10000   0.
    70.73000  2938.90000   0.
    72.26000  2938.60000   0.
    73.80000  2938.30000   0.
    75.34000  2938.50000   0.
    76.88000  2938.70000   0.
    78.41000  2938.60000   0.
    79.95000  2938.80000   0.
    81.49000  2938.90000   0.
    83.03000  2939.10000   0.
    84.56000  2939.10000   0.
     3.42000  2957.55000   0.
     8.97000  2954.51000   0.
    14.52000  2951.86000   0.
    20.07000  2949.38000   0.
    25.63000  2946.59000   0.
    31.18000  2943.67000   0.
    36.73000  2940.99000   0.
    42.28000  2938.62000   0.
    47.83000  2936.87000   0.
    53.39000  2935.46000   0.
    58.94000  2933.69000   0.
    64.49000  2931.95000   0.
    70.04000  2931.81000   0.
    75.60000  2931.36000   0.
    81.15000  2931.70000   0.
     0.51333  2967.60000   0.
     1.02667  2967.10000   0.
     2.05333  2966.03333   0.
     2.56667  2965.46667   0.
     3.59000  2964.63333   0.
     4.10000  2964.36667   0.
     5.12333  2963.83333   0.
     5.63667  2963.56667   0.
     6.66333  2963.06667   0.
     7.17667  2962.83333   0.
     8.20333  2962.23333   0.
     8.71667  2961.86667   0.
     9.74000  2961.23333   0.
    10.25000  2960.96667   0.
    11.27333  2960.46667   0.
    11.78667  2960.23333   0.
    12.81333  2959.76667   0.
    13.32667  2959.53333   0.
    14.35333  2959.10000   0.
    14.86667  2958.90000   0.
    15.89000  2958.50000   0.
    16.40000  2958.30000   0.
    17.42333  2957.83333   0.
    17.93667  2957.56667   0.
    18.96333  2957.06667   0.
    19.47667  2956.83333   0.
    20.50000  2956.33333   0.
    21.01000  2956.06667   0.
    22.03333  2955.53333   0.
    22.54667  2955.26667   0.
    23.57333  2954.76667   0.
    24.08667  2954.53333   0.
    25.11333  2954.03333   0.
    25.62667  2953.76667   0.
    26.65333  2953.26667   0.
    27.16667  2953.03333   0.
    28.19000  2952.50000   0.
    28.70000  2952.20000   0.
    29.72333  2951.63333   0.
    30.23667  2951.36667   0.
    31.26333  2950.80000   0.
    31.77667  2950.50000   0.
    32.80333  2949.96667   0.
    33.31667  2949.73333   0.
    34.34000  2949.23333   0.
    34.85000  2948.96667   0.
    35.87333  2948.50000   0.
    36.38667  2948.30000   0.
    37.41333  2947.83333   0.
    37.92667  2947.56667   0.
    38.95333  2947.10000   0.
    39.46667  2946.90000   0.
    40.49000  2946.50000   0.
    41.00000  2946.30000   0.
    42.02333  2945.90000   0.
    42.53667  2945.70000   0.
    43.56333  2945.36667   0.
    44.07667  2945.23333   0.
    45.10333  2944.90000   0.
    45.61667  2944.70000   0.
    46.64000  2944.36667   0.
    47.15000  2944.23333   0.
    48.17333  2943.93333   0.
    48.68667  2943.76667   0.
    49.71333  2943.53333   0.
    50.22667  2943.46667   0.
    51.25333  2943.26667   0.
    51.76667  2943.13333   0.
    52.79000  2942.83333   0.
    53.30000  2942.66667   0.
    54.32333  2942.36667   0.
    54.83667  2942.23333   0.
    55.86333  2941.93333   0.
    56.37667  2941.76667   0.
    57.40333  2941.40000   0.
    57.91667  2941.20000   0.
    58.94000  2940.86667   0.
    59.45000  2940.73333   0.
    60.47333  2940.43333   0.
    60.98667  2940.26667   0.
    62.01333  2939.90000   0.
    62.52667  2939.70000   0.
    63.55333  2939.36667   0.
    64.06667  2939.23333   0.
    65.34500  2939.15000   0.
    66.88000  2939.20000   0.
    68.42000  2939.15000   0.
    69.70333  2939.03333   0.
    70.21667  2938.96667   0.
    71.24000  2938.80000   0.
    71.75000  2938.70000   0.
    72.77333  2938.50000   0.
    73.28667  2938.40000   0.
    74.31333  2938.36667   0.
    74.82667  2938.43333   0.
    75.85333  2938.56667   0.
    76.36667  2938.63333   0.
    77.64500  2938.65000   0.
    78.92333  2938.66667   0.
    79.43667  2938.73333   0.
    80.72000  2938.85000   0.
    82.00333  2938.96667   0.
    82.51667  2939.03333   0.
    83.79500  2939.10000   0.
     0.08400  2959.57200   0.
     1.19600  2958.89800   0.
     2.30800  2958.22400   0.
     4.53000  2956.94200   0.
     5.64000  2956.33400   0.
     6.75000  2955.72600   0.
     7.86000  2955.11800   0.
    10.35750  2953.84750   0.
    11.74500  2953.18500   0.
    13.13250  2952.52250   0.
    15.90750  2951.24000   0.
    17.29500  2950.62000   0.
    18.68250  2950.00000   0.
    21.18200  2948.82200   0.
    22.29400  2948.26400   0.
    23.40600  2947.70600   0.
    24.51800  2947.14800   0.
    26.74000  2946.00600   0.
    27.85000  2945.42200   0.
    28.96000  2944.83800   0.
    30.07000  2944.25400   0.
    32.56750  2943.00000   0.
    33.95500  2942.33000   0.
    35.34250  2941.66000   0.
    38.11750  2940.39750   0.
    39.50500  2939.80500   0.
    40.89250  2939.21250   0.
    43.66750  2938.18250   0.
    45.05500  2937.74500   0.
    46.44250  2937.30750   0.
    49.22000  2936.51750   0.
    50.61000  2936.16500   0.
    52.00000  2935.81250   0.
    54.77750  2935.01750   0.
    56.16500  2934.57500   0.
    57.55250  2934.13250   0.
    60.32750  2933.25500   0.
    61.71500  2932.82000   0.
    63.10250  2932.38500   0.
    65.87750  2931.91500   0.
    67.26500  2931.88000   0.
    68.65250  2931.84500   0.
    71.43000  2931.69750   0.
    72.82000  2931.58500   0.
    74.21000  2931.47250   0.
    76.98750  2931.44500   0.
    78.37500  2931.53000   0.
    79.76250  2931.61500   0.
    82.53750  2931.75500   0.
    83.92500  2931.81000   0.
     6.60134  2937.05984   0.
    20.80435  2932.52560   0.
     3.78758  2946.36592   0.
    15.48523  2940.98228   0.
    29.30091  2934.50364   0.
    23.90594  2939.46561   0.
    40.87322  2931.62711   0.
     1.03219  2951.87344   0.
    10.83406  2946.32292   0.
    20.42668  2943.42459   0.
    48.80952  2930.83467   0.
    35.50309  2935.49258   0.
     7.54365  2949.73854   0.
    28.57967  2939.84283   0.
    15.90963  2945.83181   0.
    44.30452  2933.27820   0.
    -0.12722  2955.42655   0.
    24.47411  2943.04615   0.
     4.45051  2952.86019   0.
    40.01017  2935.22543   0.
    52.75593  2931.58993   0.
    13.75183  2934.27842   0.
    32.31862  2938.44653   0.
     0.40990  2931.04902   0.
    19.20708  2946.27332   0.
    57.19103  2930.55709   0.
    -0.97178  2947.27328   0.
    19.39705  2939.49643   0.
    11.08068  2950.12444   0.
    32.86215  2930.47012   0.
     7.41320  2941.82707   0.
    13.76382  2948.77946   0.
    27.17579  2942.79365   0.
     7.27112  2952.68663   0.
     2.71547  2954.94653   0.
    22.91159  2945.17994   0.
     2.00816  2941.86911   0.
    24.73355  2934.79062   0.
    47.86753  2934.00196   0.
    50.62083  2933.29089   0.
    60.15732  2930.28185   0.
    37.65425  2937.53830   0.
    44.64836  2929.77041   0.
    10.93416  2939.02064   0.
     4.26476  2949.76242   0.
    36.78915  2931.78219   0.
     7.36345  2946.13476   0.
    30.92470  2941.06806   0.
     6.19921  2931.10091   0.
    35.16618  2938.51604   0.
    16.36294  2929.87801   0.
    13.43632  2943.77014   0.
    42.64967  2935.50406   0.
    26.89596  2931.23775   0.
     1.59760  2936.73753   0.
    17.19200  2948.13905   0.
    -0.61497  2957.60981   0.
    26.49360  2937.36117   0.
     9.56799  2951.50953   0.
    17.55858  2943.77119   0.
    55.26825  2932.33039   0.
    22.03247  2936.46128   0.
    16.10828  2937.24515   0.
    22.48452  2941.40733   0.
    20.86327  2946.43955   0.
    29.71126  2937.35408   0.
    32.14062  2935.59882   0.
    45.26358  2935.44707   0.
    29.19256  2942.39482   0.
    25.22337  2944.48902   0.
    25.77440  2940.40763   0.
     5.12787  2951.33100   0.
     9.72036  2943.07255   0.
     0.63027  2944.64860   0.
     5.15669  2954.13690   0.
    33.80274  2940.56791   0.
     1.57076  2956.41210   0.
     9.31000  2947.97928   0.
     9.87726  2933.53233   0.
    53.60824  2932.85261   0.
    40.63972  2936.89193   0.
    13.47285  2946.23828   0.
    37.68088  2934.75035   0.
    46.32767  2931.88185   0.
    18.64740  2941.16071   0.
    13.09413  2950.32980   0.
    18.01744  2935.92389   0.
     0.55332  2948.73049   0.
     5.35766  2947.55011   0.
    42.44669  2933.52960   0.
    57.75733  2932.24094   0.
    23.68300  2931.83870   0.
    19.94397  2947.74183   0.
    61.81887  2931.15328   0.
[...]
POINT_DATA      1414
CELL_DATA      2568
SCALARS Resistivity(ohm.m) double 1
LOOKUP_TABLE default
          1193.63602          1777.80098          2394.12287          1150.32039           530.34291          2304.38234          1294.73684          1435.91262          1703.55078          1991.18660           770.73281          1914.63351           569.13594          2351.62889          2317.54098          1752.05830          1626.75168           438.91441           505.52053          2429.79014          1231.30143          1797.45560          1313.06267           607.24159          1924.71639           510.66235           250.45049          2258.29912          2241.58596          2301.48733           526.42979           510.68588          1701.70989           388.12878           343.54680          1578.29944           720.02977           984.45851          1269.92780          1489.85488          1875.36048           665.97423           459.57883          2342.26997           319.54705           407.14661          2915.55835           831.18703           586.93710           971.53624          2539.55729          1921.09648          1040.52792          1631.49331          2153.61594           945.11924           340.71293          2263.06413           455.74540          1117.21384           539.29317          2202.54160           432.85658          1731.56020           255.92849          1610.11645          2173.87291          1973.45308           273.19567           740.04322           490.49489           788.28771          2118.62549           380.75936           299.26058          2857.00658          1445.98158           438.55625           316.68281          2736.58327          2592.30280          1397.75819           434.17624           421.71903          2122.30997           810.99029           317.66329          2143.38254           893.02756          1867.46828          1090.55296           348.32977          2308.00333           344.98447          1684.37860          2073.02980           544.17324          1247.04858          2239.82029          1038.95938          1565.98506           556.22466           649.75267           698.86531          1020.18232          1748.70211           531.33328           961.89887          2004.02201          1320.29275           365.57841          1149.97814          2506.87269          1766.77975          2085.32197          1354.73128          1074.17645          1554.75701           455.60363           299.16685          2391.64734          1421.29691          2950.44169           732.85939           514.31838          2124.12029          2414.65539          3178.74129          1735.91180          1381.37217          2076.45382          1138.58770          1274.91378          2315.08083           829.17907          2762.95643           365.02153          1719.06093          1044.69195          1407.14092          1630.16631           538.17813           636.63228          1322.81667          1699.62580           582.31299           485.01242          1501.09859          2003.18365           537.65860          2247.09119          1981.08340           946.95429           663.85531          2348.40613           271.61503          1526.68340           390.97899          2258.82592          1322.59916          1196.57700           542.09172          2332.62258           501.03436          2191.91288           540.78989          1400.90203          1677.98039          1968.51557          1776.50384           693.56138           766.90458           708.70081           257.31687           416.84642           945.93154           832.57209          3387.82963          2610.69059          1161.42483          2325.76930          1386.95978          2021.57629           745.11951           546.24865          1000.63246           891.68265           671.71455           872.38514          2476.73295          1256.77824          2427.94564           612.24549          2612.74599           258.31671           526.19671          2553.49821          2050.45124          1269.00191           423.05765           270.85883           827.10981          1729.34736          1485.12470          1666.44643          1083.09184          3655.51278          2184.34322           391.03091          2162.63500          1353.20661           608.01847           431.97621           315.85045           569.54288          1228.35040          2365.73521           480.52929          1276.19034           551.11515           890.16587          1342.33406          1140.49602           322.58615           621.70770           658.92053           368.26524           559.74666          1333.99933           321.20654          1070.70764          1879.43531          1439.46394          2855.54200          2398.04510          1572.49414          2424.49515          1408.54570          1401.08165          1400.35011          2564.63763           621.49886           991.99741           393.35176          2459.85688           251.92687          1863.93258           517.43516           432.54565          2077.44626           245.95115          1866.16160          1634.21724           701.38193          2047.97749           992.44095           599.98903           738.43486           683.51658          2799.66119           551.78951          2146.11412           476.62290           427.35608           468.28990          1569.56927           337.67575          2355.64380           929.70711          2266.19449          1012.52544          1959.32749          2412.49256          2276.27880           445.39762          1633.21262          2100.36025           431.81024           671.43977           615.28735           436.45153          1429.19718           261.84820           955.16866           918.54152          2412.69203           485.28574          2423.13226           595.74192           457.55599           951.90274           287.64513          2348.04090           663.21943          1993.94150          2354.05445          1437.37056           558.63289           431.07983           664.75661          1044.59441           467.85999          2468.80949          2518.50031           391.58549          1880.33214          1353.00235          1560.36238          1999.80777           371.00641           703.48733           554.90331           278.45776          2368.31789           765.27932           313.76284           519.81782          1163.79681          2693.52749           462.31884          3145.77638           387.29621           950.98534           437.91365           564.71522          1244.08040           489.94049          1436.50435          1083.41603          2796.26001          1781.72993          2193.00735           506.63758          1532.77782           338.95354           396.03773           611.89078           591.63383          3058.59457           553.04063          2218.17279           402.10120          2149.13446           449.29252           593.31868          1860.56313          1225.64945          1084.50839           479.67843          2238.26887           441.83192          2449.89825           797.15058           350.75855           482.84351          2145.50398           524.89624          1552.00067           302.66594           378.92939           821.25502          1560.92620           902.45868           513.13113          1391.01259           478.87478           336.70852          2410.01076          1682.89094          2596.53549           427.40711          1344.48408          1443.74113          1030.49122           285.81293          2616.13483           401.54075           459.87304           415.53802          2091.32796          1397.09627           418.08193          1833.07596          2409.32201           252.75524          1385.92178           561.99999          1350.42452           458.55881          1475.80606           706.99896           324.66096          1470.03858          1355.00972           419.20264           797.22333           561.08072          1326.27857          1783.08196          1035.73086           545.64556           622.41599          1377.14950          1485.66251          1345.58954           883.90389           525.80689           966.13066          2339.70790          1628.97538          1498.13654          2245.76816          1029.24664           633.96796          1155.60251          2457.95100           640.89457           884.04605           670.13272          1679.34573           993.63900           374.84148          2260.30159          1413.37109          1313.85099           268.90937          1529.39747           550.66601          1437.90644           479.64324          1358.53964           466.53252           416.19476          1803.75040          1071.05234          1500.35574          1504.03636           606.85474          1952.58670          1287.89983          3419.86549           590.74630          1222.52665          1955.06260          1189.44265          1120.33218          1330.84608          1252.68146          3948.61954           868.11287          3207.09331          1565.89108          1440.07238          1218.62174          1574.00757           834.69978          2203.84516           942.53217          1364.47420           423.33677          1927.91167          1365.74555           901.86693          1316.94258          2161.18175           836.81464           861.58786          1199.63484          1596.47546          1619.55043           838.13067          1851.74189           894.01534           278.54929          1937.89198          3671.20356          1075.60389           429.42842          1473.45925           705.95252          1105.14014          1787.62720           530.86958           534.79112          2098.60405          2697.03651          1264.38302           337.22045           652.18595           779.10432          1322.69518          1161.88493          1106.42129          1556.58901           814.67310          1505.31686           779.15126          1101.18036          2504.74472          1850.01252           627.08432           306.87055           563.93397          1306.70587           786.11125          1258.76817          3462.18302          1301.72866           350.54056           506.14893          1278.48557          1245.91560           888.07347           391.97700          3040.15626          1436.61641           357.25768          3156.73489          2319.62718           408.13249          1415.59367          1291.91450          1120.18317          1212.04917          1121.97126           548.18487          1539.97518          1479.78267          1501.40708          1289.10667           715.45608          1643.78034           436.44023          1226.88564           575.80794           418.67101           734.55049          1700.16920          1154.95765           956.47385           430.47913           377.43364          1704.85727          1197.76557          4028.42491          4100.07810          3519.99595          2213.17549          1965.14319          2158.57041          3552.86236          5129.45482           670.49710          4536.63280           498.01152          1090.02091          1397.06399           679.10162          3428.24959          5028.99622          1371.21429           469.51039          2100.20591          2696.50077           773.21269           891.62050          1505.32005          4471.71775          1435.90791          1952.27654           952.47387           646.40651          1410.59001          1621.25051           513.68762          3581.57160           520.34777          1523.39744          5401.10894          4284.70202          1691.83326          4594.63077           281.04366           809.68893           499.86678          2122.58513          2655.94894          1828.89867          3023.09121          1894.03617          2473.87637           732.81993          1566.55591          1337.26884          1882.04202          9065.14850          3725.15844           930.12545          4727.29996          4175.41843           812.87017           639.49203          5037.79120          2711.25231          4564.49500          4553.31245          1537.76716           910.60202           611.48668           566.89353           841.50107          4378.74337          1702.68989          1023.94740          1583.43123           319.35105          1041.49710          1876.08985          3596.74848          1070.79972           907.26171           664.48881           872.77935          1710.93543          1558.16079           870.91829          3476.63153          2786.96566          3362.76800          3570.05827          5681.77204          4391.10856          2741.22569           599.08789          3960.38119          1285.94947          1662.71398           643.30907          1468.63821           955.27675           386.04882          5678.75600          5325.69757          1559.63933          1671.45543          2778.62717          2471.40276          3297.34740          2855.23241           943.72852          1500.06194           636.97843           892.68736           403.20418           534.85705           755.94955           606.22631          2098.70735          4593.11650          3608.62412          1524.88773          2329.13146          1421.40782          1787.11502          8003.83247          4846.05773          2071.93383           415.51893           568.28204          5120.87602           712.57952          3992.95758          4571.36998          1021.99189          2567.05033           729.66579           954.49827          1028.71667          2558.43740          2686.19739          2581.33808           652.85248           548.24535          1097.89953           363.98614           631.31563           483.20425          3854.97263          5471.89366           515.39795          3028.43363           927.62749          2456.42336          1164.33691           715.65829           641.60235           736.26989           699.85984          2026.31311           772.64504          1622.27801           711.95987          2433.86537          1793.76449          4401.17045          2442.14839           755.33235           607.59051           325.24975          3259.86680           741.62777           775.97062          1313.17907          2771.68655           781.52151           793.20347           560.93291          1333.74206          1279.08925          1784.33781          1405.50815           662.72078           719.42331           680.30791          2529.49234          1811.46337          1215.67094          7742.08486          1024.96088           992.57972           882.80341          1888.90414          2380.00111          1495.89028          1625.18418          1961.49288          2653.26910           548.47783          6881.45249          1600.28497          2641.82680           895.39895          1109.13262          4096.87926          2792.09111           767.55268          1156.84309          3596.52788           519.76004           525.06927          1339.91181          2572.83559          5466.91323          1491.65383          6897.56725          1454.20736          1856.54027          1545.36480          1131.19124           462.83913           745.97386          2854.75642           658.24014          4280.56081           642.05760          3234.05753           830.51616           903.97043          1509.85156          2076.17305          3146.54948          4974.53882          2600.22914          1446.60302          1837.49152          1305.84850          5405.01756          7304.72186          1936.83701          1043.70574          2937.03288           678.06261          1077.29092           875.61371          2954.37118          1085.59875           958.34403           564.37095           652.63789          3861.92754          1144.59120           732.39472          5894.20066          4043.02179          2205.62526          1458.23469          7626.09633           841.88681          2790.13901          3210.12856          2339.24593          1279.58346          3068.85350          5476.68448          1716.23671           460.11359           704.87261           829.55584          1816.69568          1818.30121           738.53456           706.69891          6204.30133           803.60904          1272.42688          1854.79512          4111.75232          5216.63369           511.81370          1313.23217           877.22769          1030.15150          1781.62562           776.57466           818.48254          1483.31311           759.54214           616.85366           426.49396           833.75181          3017.07132           503.32667          2957.50879          1675.89080          2034.37167          1510.07568          1881.43110          1573.87302           432.96748          4784.74798          1525.89694          1937.56576          2105.58708          2274.73624          5593.46102          1028.96331          5227.88134           540.74479           651.74794          1594.97490          1096.44705          7418.41778          2563.33549           927.85733          1587.42050          4158.53486          3428.48984           621.28132          4800.45568          1337.16006          2738.41499          1045.99047          3484.46310          3797.16265           524.93896          3383.21945          3902.86318          2585.73440          5798.76773           798.23231           767.01359          1092.20394          2507.72398           504.90782          9736.96060          3871.07857           621.00063          1730.62948          1913.63979          2129.66747           748.52954          1086.45143         13713.20361           725.64190          2342.92193          1411.49958           498.63779           812.57709          2729.22949          5536.20070          6209.92289          1848.38294          2032.15279          2495.02985          4337.11406           728.59916          1494.09511          2322.09743          1908.99884          5420.40974           655.49108          1087.99282          2664.31305           849.83828          3928.70713          2526.98555          6578.91225          3345.49690          1396.92225          1058.63199           653.40588          5588.17312          7085.65845          2069.14491           254.44899           369.41749           807.34672           869.18533          6125.99255          1331.82021          2008.02040          3492.80059          2340.92395          6072.72331          5855.76178           370.72547           557.61138           805.92745          1238.67083           629.83476          4181.68177          4102.64794          1374.54269           789.56307          1027.20695          2334.94738          3814.33218          2453.99654          2235.83487           983.65180          4053.47124          7566.45669           489.84257           675.18884          1775.15533          7525.67859          2303.82743          2972.67137          4658.96825           841.72923          1992.96203          4234.39365           534.51825          1453.89375          1111.42919          5805.09003           914.44205          1678.85574          3093.77754          5080.14739          5253.71442          5778.71126          4652.91041          4232.92014          1737.38729           920.76510          3417.77435         10853.67268           652.90149          2719.30096          2871.48354           278.20273          2249.78577          3701.57349          2922.16224           451.22373          4598.28516           798.84810          3514.15707          4555.23101          1828.05033           760.57269          3175.24693          3631.00306          5291.64129          5976.02409          5220.62124           640.02169           682.42576          1380.58309          4863.86148          1112.73330          2796.90951          1025.73840           619.711