# vtk DataFile Version 3.0
Output from R2
ASCII
DATASET UNSTRUCTURED_GRID
POINTS       1414 double
     0.00000  2968.10000   0.
     1.54000  2966.60000   0.
     3.08000  2964.90000   0.
     4.61000  2964.10000   0.
     6.15000  2963.30000   0.
     7.69000  2962.60000   0.
     9.23000  2961.50000   0.
    10.76000  2960.70000   0.
    12.30000  2960.00000   0.
    13.84000  2959.30000   0.
    15.38000  2958.70000   0.
    16.91000  2958.10000   0.
    18.45000  2957.30000   0.
    19.99000  2956.60000   0.
    21.52000  2955.80000   0.
    23.06000  2955.00000   0.
    24.60000  2954.30000   0.
    26.14000  2953.50000   0.
    27.68000  2952.80000   0.
    29.21000  2951.90000   0.
    30.75000  2951.10000   0.
    32.29000  2950.20000   0.
    33.83000  2949.50000   0.
    35.36000  2948.70000   0.
    36.90000  2948.10000   0.
    38.44000  2947.30000   0.
    39.98000  2946.70000   0.
    41.51000  2946.10000   0.
    43.05000  2945.50000   0.
    44.59000  2945.10000   0.
    46.13000  2944.50000   0.
    47.66000  2944.10000   0.
    49.20000  2943.60000   0.
    50.74000  2943.40000   0.
    52.28000  2943.00000   0.
    53.81000  2942.50000   0.
    55.35000  2942.10000   0.
    56.89000  2941.60000   0.
    58.43000  2941.00000   0.
    59.96000  2940.60000   0.
    61.50000  2940.10000   0.
    63.04000  2939.50000   0.
    64.58000  2939.10000   0.
    66.11000  2939.20000   0.
    67.65000  2939.20000   0.
    69.19000  2939.10000   0.
    70.73000  2938.90000   0.
    72.26000  2938.60000   0.
    73.80000  2938.30000   0.
    75.34000  2938.50000   0.
    76.88000  2938.70000   0.
    78.41000  2938.60000   0.
    79.95000  2938.80000   0.
    81.49000  2938.90000   0.
    83.03000  2939.10000   0.
    84.56000  2939.10000   0.
     3.42000  2957.55000   0.
     8.97000  2954.51000   0.
    14.52000  2951.86000   0.
    20.07000  2949.38000   0.
    25.63000  2946.59000   0.
    31.18000  2943.67000   0.
    36.73000  2940.99000   0.
    42.28000  2938.62000   0.
    47.83000  2936.87000   0.
    53.39000  2935.46000   0.
    58.94000  2933.69000   0.
    64.49000  2931.95000   0.
    70.04000  2931.81000   0.
    75.60000  2931.36000   0.
    81.15000  2931.70000   0.
     0.51333  2967.60000   0.
     1.02667  2967.10000   0.
     2.05333  2966.03333   0.
     2.56667  2965.46667   0.
     3.59000  2964.63333   0.
     4.10000  2964.36667   0.
     5.12333  2963.83333   0.
     5.63667  2963.56667   0.
     6.66333  2963.06667   0.
     7.17667  2962.83333   0.
     8.20333  2962.23333   0.
     8.71667  2961.86667   0.
     9.74000  2961.23333   0.
    10.25000  2960.96667   0.
    11.27333  2960.46667   0.
    11.78667  2960.23333   0.
    12.81333  2959.76667   0.
    13.32667  2959.53333   0.
    14.35333  2959.10000   0.
    14.86667  2958.90000   0.
    15.89000  2958.50000   0.
    16.40000  2958.30000   0.
    17.42333  2957.83333   0.
    17.93667  2957.56667   0.
    18.96333  2957.06667   0.
    19.47667  2956.83333   0.
    20.50000  2956.33333   0.
    21.01000  2956.06667   0.
    22.03333  2955.53333   0.
    22.54667  2955.26667   0.
    23.57333  2954.76667   0.
    24.08667  2954.53333   0.
    25.11333  2954.03333   0.
    25.62667  2953.76667   0.
    26.65333  2953.26667   0.
    27.16667  2953.03333   0.
    28.19000  2952.50000   0.
    28.70000  2952.20000   0.
    29.72333  2951.63333   0.
    30.23667  2951.36667   0.
    31.26333  2950.80000   0.
    31.77667  2950.50000   0.
    32.80333  2949.96667   0.
    33.31667  2949.73333   0.
    34.34000  2949.23333   0.
    34.85000  2948.96667   0.
    35.87333  2948.50000   0.
    36.38667  2948.30000   0.
    37.41333  2947.83333   0.
    37.92667  2947.56667   0.
    38.95333  2947.10000   0.
    39.46667  2946.90000   0.
    40.49000  2946.50000   0.
    41.00000  2946.30000   0.
    42.02333  2945.90000   0.
    42.53667  2945.70000   0.
    43.56333  2945.36667   0.
    44.07667  2945.23333   0.
    45.10333  2944.90000   0.
    45.61667  2944.70000   0.
    46.64000  2944.36667   0.
    47.15000  2944.23333   0.
    48.17333  2943.93333   0.
    48.68667  2943.76667   0.
    49.71333  2943.53333   0.
    50.22667  2943.46667   0.
    51.25333  2943.26667   0.
    51.76667  2943.13333   0.
    52.79000  2942.83333   0.
    53.30000  2942.66667   0.
    54.32333  2942.36667   0.
    54.83667  2942.23333   0.
    55.86333  2941.93333   0.
    56.37667  2941.76667   0.
    57.40333  2941.40000   0.
    57.91667  2941.20000   0.
    58.94000  2940.86667   0.
    59.45000  2940.73333   0.
    60.47333  2940.43333   0.
    60.98667  2940.26667   0.
    62.01333  2939.90000   0.
    62.52667  2939.70000   0.
    63.55333  2939.36667   0.
    64.06667  2939.23333   0.
    65.34500  2939.15000   0.
    66.88000  2939.20000   0.
    68.42000  2939.15000   0.
    69.70333  2939.03333   0.
    70.21667  2938.96667   0.
    71.24000  2938.80000   0.
    71.75000  2938.70000   0.
    72.77333  2938.50000   0.
    73.28667  2938.40000   0.
    74.31333  2938.36667   0.
    74.82667  2938.43333   0.
    75.85333  2938.56667   0.
    76.36667  2938.63333   0.
    77.64500  2938.65000   0.
    78.92333  2938.66667   0.
    79.43667  2938.73333   0.
    80.72000  2938.85000   0.
    82.00333  2938.96667   0.
    82.51667  2939.03333   0.
    83.79500  2939.10000   0.
     0.08400  2959.57200   0.
     1.19600  2958.89800   0.
     2.30800  2958.22400   0.
     4.53000  2956.94200   0.
     5.64000  2956.33400   0.
     6.75000  2955.72600   0.
     7.86000  2955.11800   0.
    10.35750  2953.84750   0.
    11.74500  2953.18500   0.
    13.13250  2952.52250   0.
    15.90750  2951.24000   0.
    17.29500  2950.62000   0.
    18.68250  2950.00000   0.
    21.18200  2948.82200   0.
    22.29400  2948.26400   0.
    23.40600  2947.70600   0.
    24.51800  2947.14800   0.
    26.74000  2946.00600   0.
    27.85000  2945.42200   0.
    28.96000  2944.83800   0.
    30.07000  2944.25400   0.
    32.56750  2943.00000   0.
    33.95500  2942.33000   0.
    35.34250  2941.66000   0.
    38.11750  2940.39750   0.
    39.50500  2939.80500   0.
    40.89250  2939.21250   0.
    43.66750  2938.18250   0.
    45.05500  2937.74500   0.
    46.44250  2937.30750   0.
    49.22000  2936.51750   0.
    50.61000  2936.16500   0.
    52.00000  2935.81250   0.
    54.77750  2935.01750   0.
    56.16500  2934.57500   0.
    57.55250  2934.13250   0.
    60.32750  2933.25500   0.
    61.71500  2932.82000   0.
    63.10250  2932.38500   0.
    65.87750  2931.91500   0.
    67.26500  2931.88000   0.
    68.65250  2931.84500   0.
    71.43000  2931.69750   0.
    72.82000  2931.58500   0.
    74.21000  2931.47250   0.
    76.98750  2931.44500   0.
    78.37500  2931.53000   0.
    79.76250  2931.61500   0.
    82.53750  2931.75500   0.
    83.92500  2931.81000   0.
     6.60134  2937.05984   0.
    20.80435  2932.52560   0.
     3.78758  2946.36592   0.
    15.48523  2940.98228   0.
    29.30091  2934.50364   0.
    23.90594  2939.46561   0.
    40.87322  2931.62711   0.
     1.03219  2951.87344   0.
    10.83406  2946.32292   0.
    20.42668  2943.42459   0.
    48.80952  2930.83467   0.
    35.50309  2935.49258   0.
     7.54365  2949.73854   0.
    28.57967  2939.84283   0.
    15.90963  2945.83181   0.
    44.30452  2933.27820   0.
    -0.12722  2955.42655   0.
    24.47411  2943.04615   0.
     4.45051  2952.86019   0.
    40.01017  2935.22543   0.
    52.75593  2931.58993   0.
    13.75183  2934.27842   0.
    32.31862  2938.44653   0.
     0.40990  2931.04902   0.
    19.20708  2946.27332   0.
    57.19103  2930.55709   0.
    -0.97178  2947.27328   0.
    19.39705  2939.49643   0.
    11.08068  2950.12444   0.
    32.86215  2930.47012   0.
     7.41320  2941.82707   0.
    13.76382  2948.77946   0.
    27.17579  2942.79365   0.
     7.27112  2952.68663   0.
     2.71547  2954.94653   0.
    22.91159  2945.17994   0.
     2.00816  2941.86911   0.
    24.73355  2934.79062   0.
    47.86753  2934.00196   0.
    50.62083  2933.29089   0.
    60.15732  2930.28185   0.
    37.65425  2937.53830   0.
    44.64836  2929.77041   0.
    10.93416  2939.02064   0.
     4.26476  2949.76242   0.
    36.78915  2931.78219   0.
     7.36345  2946.13476   0.
    30.92470  2941.06806   0.
     6.19921  2931.10091   0.
    35.16618  2938.51604   0.
    16.36294  2929.87801   0.
    13.43632  2943.77014   0.
    42.64967  2935.50406   0.
    26.89596  2931.23775   0.
     1.59760  2936.73753   0.
    17.19200  2948.13905   0.
    -0.61497  2957.60981   0.
    26.49360  2937.36117   0.
     9.56799  2951.50953   0.
    17.55858  2943.77119   0.
    55.26825  2932.33039   0.
    22.03247  2936.46128   0.
    16.10828  2937.24515   0.
    22.48452  2941.40733   0.
    20.86327  2946.43955   0.
    29.71126  2937.35408   0.
    32.14062  2935.59882   0.
    45.26358  2935.44707   0.
    29.19256  2942.39482   0.
    25.22337  2944.48902   0.
    25.77440  2940.40763   0.
     5.12787  2951.33100   0.
     9.72036  2943.07255   0.
     0.63027  2944.64860   0.
     5.15669  2954.13690   0.
    33.80274  2940.56791   0.
     1.57076  2956.41210   0.
     9.31000  2947.97928   0.
     9.87726  2933.53233   0.
    53.60824  2932.85261   0.
    40.63972  2936.89193   0.
    13.47285  2946.23828   0.
    37.68088  2934.75035   0.
    46.32767  2931.88185   0.
    18.64740  2941.16071   0.
    13.09413  2950.32980   0.
    18.01744  2935.92389   0.
     0.55332  2948.73049   0.
     5.35766  2947.55011   0.
    42.44669  2933.52960   0.
    57.75733  2932.24094   0.
    23.68300  2931.83870   0.
    19.94397  2947.74183   0.
    61.81887  2931.15328   0.
[...]
POINT_DATA      1414
CELL_DATA      2568
SCALARS Resistivity(ohm.m) double 1
LOOKUP_TABLE default
           757.98832          1394.61626          2679.72800           729.69192           575.89984          2907.60964          1060.08776          1094.00240          1523.73422          1680.35176           688.06701          1525.29201           624.67208          2633.36610          2486.85541          1340.86768          1261.77402           528.90509           475.75526          4253.09334          1038.96696          1354.68753           877.82400           626.75607          1667.85063           537.93295           311.36482          2659.39334          2331.64546          2396.50306           493.92979           559.58496          1305.15787           480.66191           358.87297          1276.23932           776.41033           668.26778           847.81218          1217.83397          1766.51522           669.19267           395.78514          2468.03238           325.41774           503.62034          3052.97078           690.27399           639.20492           905.49806          3502.23461          1689.28375           758.98139          1309.53855          1765.91420           642.42598           339.18120          2441.60889           482.59443           774.89021           573.66448          2257.22655           517.24765          1286.32385           306.98962          1405.49527          2251.84385          1655.83085           305.03432           521.74505           536.39560           799.49865          2067.30955           358.50438           364.39175          2986.44285           957.81445           525.65011           399.87406          3079.06920          3258.67047          1038.27853           444.99077           505.77184          2062.73516           553.08622           326.01374          2177.61251           851.29698          1483.61225           711.44857           339.94831          2808.57377           411.53361          1381.25966          1968.49727           588.46158           826.83397          2314.33060           683.83062          1097.78042           547.43233           553.81567           663.12445          1010.52914          1529.76013           558.98065           724.40942          1624.88135           869.35705           423.24020           942.79229          2692.46689          1321.22691          2039.82733          1052.59521           903.83709          1159.21238           402.73395           318.49810          3866.99070           943.56371          3018.92906           609.77152           569.61654          2083.35996          2578.76043          3117.10962          1269.17493          1085.32975          1931.43831           721.66947           889.67846          2638.32731           670.60889          2959.96524           430.65566          1436.93923           675.42607          1117.58860          1203.57860           540.18805           538.50963          1043.12284          1331.43700           542.86512           482.37985          1039.95136          1796.99384           539.42803          2089.40113          1808.62776           700.84434           707.63041          3185.40894           340.38728          1109.15081           486.88833          2329.67441           937.91987           816.19902           523.34872          2519.56174           547.35158          2191.47455           586.97799          1133.75283          1311.72375          1907.33799          1447.88608           696.04040           641.64962           571.32903           300.73502           414.11240           798.25146           570.42971          3424.47390          2823.53004           766.59901          3137.94438           980.49049          1810.30207           593.94399           560.26566           650.47234           596.35683           532.44581           761.76704          2766.91572           855.12280          2796.65632           475.85692          3004.16089           302.02770           443.99689          3089.25364          1839.65783           812.31686           392.45028           349.15095           787.68906          1258.38824          1098.93295          1272.39330           691.15624          3735.81953          1838.33957           371.35254          1949.37034           925.39123           556.04259           411.17596           332.60744           573.09377           783.85917          2528.33067           544.88862           816.97731           495.20678           819.95048           875.11019           745.93439           345.55157           592.40134           490.25484           444.55577           450.11265          1049.75100           352.09673           848.04374          1503.15941           972.33355          3122.82551          3529.25834          1119.15870          3429.43561           967.73290           918.71412           942.50896          2860.40594           623.03830           640.35195           361.24937          2993.30965           315.67365          1494.13544           540.66181           508.71802          1867.66085           314.24484          1469.09022          1155.95522           522.69279          1880.56131           701.40216           662.68279           544.94383           610.48701          3163.92886           600.86395          1995.84119           542.25448           377.56393           487.22439          1087.58925           342.98830          3072.56844           609.07553          1967.07074           811.26378          1587.00316          2616.00265          2771.05987           526.51796          1184.79641          1773.97512           536.95250           732.97924           669.49086           546.23702          1082.52769           314.00044           676.69797           741.44776          3039.59407           425.83164          3915.44670           599.93442           520.68002           821.69125           336.68585          2871.80129           486.23513          1765.31546          3435.48434           946.65634           513.92561           379.06237           514.76695           922.72580           464.86182          3637.05308          2717.04222           478.46728          1679.59204           950.07296          1137.06489          1903.64178           441.13142           511.92788           602.56978           307.01222          3413.77420           720.12154           349.14326           563.71580           880.48350          3054.10294           526.38604          3267.23822           403.63110           943.85764           505.70989           479.28075           817.29833           514.77340          1122.55141           687.10788          2928.53712          1379.42086          2317.55098           415.96954          1043.79152           358.88444           395.26511           488.37038           570.03865          3131.94548           553.71288          2376.76258           470.86052          2161.59472           521.30888           531.26713          1615.22315           801.80082          1068.52411           520.79907          2532.09675           513.62268          2664.32630           566.72857           391.89624           437.67915          2140.55048           516.85847          1054.94725           319.54167           358.77362           756.04181          1257.35322           718.59669           417.67555           997.93492           402.70706           370.26643          3893.85927          1204.70795          2874.64752           535.09609           982.88405          1013.01835           856.11448           323.72115          2824.82335           412.04786           550.56620           501.00809          1991.32091           956.28813           492.30560          1651.91430          3104.50975           330.64132          1017.39489           569.11195           919.28760           435.15062           994.93794           504.70135           336.53456          1116.45678          1117.29144           485.67576           714.22927           439.04036           992.62076          1492.42948           776.14257           587.56128           466.47977           905.93229          1250.71233           873.65328           621.27234           535.96903           639.33235          3250.62732          1147.11604          1002.16011          2415.79731           794.86488           650.28059           978.22219          3930.20149           700.35706           877.31211           637.30817          1194.36801           770.43958           368.52770          2591.02801           938.54346           844.86834           306.60202          1169.30870           579.65609          1032.61293           545.69277           879.99950           540.58691           486.18340          1467.20344           728.12761          1059.13226          1011.00501           636.93529          1790.47399           992.59961          3345.25718           603.01508           784.67387          1597.75032           764.07695           756.86953          1001.33713           813.00087          4353.84524           604.32923          3184.13757          1082.33206          1039.84986           950.73598          1180.45020           636.64729          2228.08707           623.59524           907.87595           516.20293          1635.77320           904.56000           607.58063           942.92285          2144.97852           619.35222           739.06618           872.45350          1249.54702          1129.00195           841.47172          1516.68420           664.03027           323.62933          1641.89499          3980.69332           802.43772           445.48110          1008.66798           629.47658           969.75735          1423.69516           458.35837           583.27205          1946.53675          3177.63796           899.22552           389.35669           729.37003           630.19696           872.57507           839.46693           700.93690          1294.52333           583.84137          1237.56926           582.97639           727.66914          2784.46668          1536.10183           657.48437           362.30397           591.63770           843.40572           597.89491           812.38841          3940.10938           840.85112           348.88043           455.99770           887.38233           797.02835           677.35076           361.34003          3301.94477          1189.51806           347.34724          3575.39395          2883.92608           511.74067           925.92883           840.27830           713.73077           846.08926           722.16725           436.89019          1069.84361          1177.41558          1179.97427           952.38610           547.95961          1184.18072           533.96617           927.00062           446.36202           519.25652           566.71525          1240.70195           743.59177           624.29747           533.11284           353.34618          1263.36542           764.83116          5169.53198          3994.20467          3805.78000          2233.27802          2090.92420          2194.12482          3647.05428          5458.83274           587.52518          4713.54131           409.59240          1178.76011          1757.77484           584.80691          3914.63143          5412.23001          1322.80060           456.27351          1902.55382          2624.64304           838.55826           876.64515          1410.21903          3702.11212          1218.84559          2449.61002           976.00778           539.87195          1991.31836          1428.38731           427.00066          3119.79111           638.20758          1265.51935          5535.45498          3395.75481          1594.07167          5148.34408           384.66897           972.50335           575.12206          1627.59135          3316.64967          1787.49956          2790.47223          1699.40018          2918.62485           842.56364          1718.31615          1172.99026          1895.60186          8604.20359          3025.43584          1116.65005          4029.73617          3695.86227           868.31002           828.80874          5796.11627          3707.15130          3632.91124          6226.08117          1355.83100           886.03176           664.24741           485.43562           843.95163          4493.11368          1676.43012          1084.13471          1347.42516           425.07501          1153.28678          1885.41051          3304.03223           943.47916           911.83868           786.18533           822.82593          1496.34589          1356.14363           797.29054          3353.88090          2121.56507          3126.41157          3525.36304          4555.43728          3945.32080          2027.56891           531.50228          4593.04060          1210.64336          1570.13125           614.74014          1342.59414           954.60506           397.45349          8010.21673          5338.94558          1442.23790          1482.13863          2900.61328          2037.24036          3091.96077          2870.64841           951.88629          1275.69162           648.91582           777.94773           416.59801           650.09178           727.14909           597.73610          1852.90485          3961.23876          3699.97140          1385.40162          2426.75104          1548.07497          1418.78146          6783.40552          5208.15208          1854.52585           437.86232           578.25469          5572.26548           767.24543          3947.66367          4561.84498          1132.16983          2404.45662           701.77839           957.76181          1159.37832          2073.42647          2201.83211          4060.93478           638.21109           473.19755          1270.26883           461.12377           644.24754           424.33833          3169.36626          5166.19199           452.69961          4960.59084           901.53377          2974.04567          1450.69889           703.33979           671.40613           637.24685           662.87565          1743.97376           780.67165          1476.72299           740.94083          2659.41965          1523.50035          3449.47788          2546.29806           639.83066           661.04252           437.92430          2953.30916           701.62578           724.98950          1436.58429          5764.60224           676.19308           855.50354           575.42772          1383.06103          1094.36552          1547.67009          1280.84152           642.37469           814.14886           808.14332          3308.31136          2002.18411          1206.58309          5874.33448          1148.55723           832.64374          1035.85620          1560.51635          2374.79140          1261.49495          1658.03322          1586.36960          2346.68260           655.53690          7324.86689          1291.42285          3167.99073           787.88230          1262.01110          3168.09134          3073.41972           841.25247          1186.43344          3164.51088           503.65319           547.26366          1282.39275          2725.03086          7062.39921          1637.49678          6391.68806          1244.35590          1659.28421          1375.19610          1400.97183           484.10646           824.81076          2518.85932           767.62524          4057.90101           619.36708          2925.09694           733.64830           788.44331          1359.04053          2233.61631          2670.30624          5113.21691          3814.68470          1758.20331          1831.18743          1713.35394          5273.03587          7637.80061          1638.52221          1006.88442          6123.84624           646.93043          1251.16887           877.87135          2096.73999          1290.63844          1075.38383           717.44574           640.39948          3999.45342           982.55391           758.50270          6321.48784          4086.41515          2311.44322          1252.16776          9616.87761           831.38494          2190.05828          2930.39981          2121.18224          1065.07784          2749.05181          4873.43248          1974.36326           418.20539           804.02665          1006.23172          1748.76881          1845.99470           684.49312           660.38747          6460.29748           792.11874          1108.79647          1892.13356          3229.59524          6878.11600           432.42093          1517.42562           880.97121          1241.48966          1850.41981           767.78173           926.70415          1485.56719           812.71801           579.19634           403.02525           671.13149          2974.19696           581.19532          3082.22225          1892.94610          2117.66621          1421.20890          1679.01657          1374.91970           413.64568          3905.72551          1346.21896          1666.89291          1876.46241          2021.49089          7772.80036           933.33290          4399.00224           608.90102           725.12957          1569.89440          1335.69224          6918.96791          3576.29022           866.23410          1541.73016          4237.65844          3273.04078           775.32217          4512.49130          1523.57895          3281.09425          1043.99911          4119.92898          3825.94046           606.47891          2973.97615          3806.90161          2755.04797          6989.68998           878.57764           668.11369          1323.21172          2701.45998           459.52809          8670.64535          3989.06347           771.56186          1617.58209          1678.63128          2198.57951           818.14770          1252.26315          5092.70517           614.28467          2311.18766          1236.61607           510.65172           845.73282          2604.70639          5890.96130          6247.13237          1579.38285          2842.65069          1959.16517          4541.23939           654.84725          1327.35665          2030.37867          1788.85831          5962.55905           656.11438          1307.05502          3291.96606           855.81903          3596.14996          2055.04894          5589.33164          2358.33531          1062.45497          1238.62647           646.55004          7053.57502          6057.41538          1872.33682           369.81535           427.66202           829.06886           900.52421          6249.46112          1617.78400          2187.76463          3280.87535          2442.25030          5545.35777          6455.27146           402.90258           660.33910           802.38458          1086.48333           616.10118          4105.54230          4199.69555          1378.45289           729.80447          1079.12567          2294.67925          3676.84527          2229.41430          2040.98134           857.65413          4148.31772          6465.31662           504.83164           725.02930          1541.61472          5930.26794          1965.35678          3359.30179          4506.53437           780.18944          1746.40834          4532.46580           510.82986          1245.54715          1048.27563          5862.45851           979.66613          1414.93391          3339.48708          5772.00294          4566.43846          5225.84472          4870.29497          3542.12951          1803.83685           912.65459          3638.32400          8789.74147           591.97074          2528.82186          2408.41071           356.91176          2450.12747          2400.56138          2371.11985           443.07309          5079.30981           758.20129          3076.05025          4900.18327          1754.52731           847.78259          2907.75455          3409.48503          5534.28413          6939.94465          4615.23034           815.05206           664.05871          1190.57038          4498.07597          1082.77594          3400.31575           913.76690           622.570