# vtk DataFile Version 3.0
Output from R2
ASCII
DATASET UNSTRUCTURED_GRID
POINTS       1414 double
     0.00000  2968.10000   0.
     1.54000  2966.60000   0.
     3.08000  2964.90000   0.
     4.61000  2964.10000   0.
     6.15000  2963.30000   0.
     7.69000  2962.60000   0.
     9.23000  2961.50000   0.
    10.76000  2960.70000   0.
    12.30000  2960.00000   0.
    13.84000  2959.30000   0.
    15.38000  2958.70000   0.
    16.91000  2958.10000   0.
    18.45000  2957.30000   0.
    19.99000  2956.60000   0.
    21.52000  2955.80000   0.
    23.06000  2955.00000   0.
    24.60000  2954.30000   0.
    26.14000  2953.50000   0.
    27.68000  2952.80000   0.
    29.21000  2951.90000   0.
    30.75000  2951.10000   0.
    32.29000  2950.20000   0.
    33.83000  2949.50000   0.
    35.36000  2948.70000   0.
    36.90000  2948.10000   0.
    38.44000  2947.30000   0.
    39.98000  2946.70000   0.
    41.51000  2946.10000   0.
    43.05000  2945.50000   0.
    44.59000  2945.10000   0.
    46.13000  2944.50000   0.
    47.66000  2944.10000   0.
    49.20000  2943.60000   0.
    50.74000  2943.40000   0.
    52.28000  2943.00000   0.
    53.81000  2942.50000   0.
    55.35000  2942.10000   0.
    56.89000  2941.60000   0.
    58.43000  2941.00000   0.
    59.96000  2940.60000   0.
    61.50000  2940.10000   0.
    63.04000  2939.50000   0.
    64.58000  2939.10000   0.
    66.11000  2939.20000   0.
    67.65000  2939.20000   0.
    69.19000  2939.10000   0.
    70.73000  2938.90000   0.
    72.26000  2938.60000   0.
    73.80000  2938.30000   0.
    75.34000  2938.50000   0.
    76.88000  2938.70000   0.
    78.41000  2938.60000   0.
    79.95000  2938.80000   0.
    81.49000  2938.90000   0.
    83.03000  2939.10000   0.
    84.56000  2939.10000   0.
     3.42000  2957.55000   0.
     8.97000  2954.51000   0.
    14.52000  2951.86000   0.
    20.07000  2949.38000   0.
    25.63000  2946.59000   0.
    31.18000  2943.67000   0.
    36.73000  2940.99000   0.
    42.28000  2938.62000   0.
    47.83000  2936.87000   0.
    53.39000  2935.46000   0.
    58.94000  2933.69000   0.
    64.49000  2931.95000   0.
    70.04000  2931.81000   0.
    75.60000  2931.36000   0.
    81.15000  2931.70000   0.
     0.51333  2967.60000   0.
     1.02667  2967.10000   0.
     2.05333  2966.03333   0.
     2.56667  2965.46667   0.
     3.59000  2964.63333   0.
     4.10000  2964.36667   0.
     5.12333  2963.83333   0.
     5.63667  2963.56667   0.
     6.66333  2963.06667   0.
     7.17667  2962.83333   0.
     8.20333  2962.23333   0.
     8.71667  2961.86667   0.
     9.74000  2961.23333   0.
    10.25000  2960.96667   0.
    11.27333  2960.46667   0.
    11.78667  2960.23333   0.
    12.81333  2959.76667   0.
    13.32667  2959.53333   0.
    14.35333  2959.10000   0.
    14.86667  2958.90000   0.
    15.89000  2958.50000   0.
    16.40000  2958.30000   0.
    17.42333  2957.83333   0.
    17.93667  2957.56667   0.
    18.96333  2957.06667   0.
    19.47667  2956.83333   0.
    20.50000  2956.33333   0.
    21.01000  2956.06667   0.
    22.03333  2955.53333   0.
    22.54667  2955.26667   0.
    23.57333  2954.76667   0.
    24.08667  2954.53333   0.
    25.11333  2954.03333   0.
    25.62667  2953.76667   0.
    26.65333  2953.26667   0.
    27.16667  2953.03333   0.
    28.19000  2952.50000   0.
    28.70000  2952.20000   0.
    29.72333  2951.63333   0.
    30.23667  2951.36667   0.
    31.26333  2950.80000   0.
    31.77667  2950.50000   0.
    32.80333  2949.96667   0.
    33.31667  2949.73333   0.
    34.34000  2949.23333   0.
    34.85000  2948.96667   0.
    35.87333  2948.50000   0.
    36.38667  2948.30000   0.
    37.41333  2947.83333   0.
    37.92667  2947.56667   0.
    38.95333  2947.10000   0.
    39.46667  2946.90000   0.
    40.49000  2946.50000   0.
    41.00000  2946.30000   0.
    42.02333  2945.90000   0.
    42.53667  2945.70000   0.
    43.56333  2945.36667   0.
    44.07667  2945.23333   0.
    45.10333  2944.90000   0.
    45.61667  2944.70000   0.
    46.64000  2944.36667   0.
    47.15000  2944.23333   0.
    48.17333  2943.93333   0.
    48.68667  2943.76667   0.
    49.71333  2943.53333   0.
    50.22667  2943.46667   0.
    51.25333  2943.26667   0.
    51.76667  2943.13333   0.
    52.79000  2942.83333   0.
    53.30000  2942.66667   0.
    54.32333  2942.36667   0.
    54.83667  2942.23333   0.
    55.86333  2941.93333   0.
    56.37667  2941.76667   0.
    57.40333  2941.40000   0.
    57.91667  2941.20000   0.
    58.94000  2940.86667   0.
    59.45000  2940.73333   0.
    60.47333  2940.43333   0.
    60.98667  2940.26667   0.
    62.01333  2939.90000   0.
    62.52667  2939.70000   0.
    63.55333  2939.36667   0.
    64.06667  2939.23333   0.
    65.34500  2939.15000   0.
    66.88000  2939.20000   0.
    68.42000  2939.15000   0.
    69.70333  2939.03333   0.
    70.21667  2938.96667   0.
    71.24000  2938.80000   0.
    71.75000  2938.70000   0.
    72.77333  2938.50000   0.
    73.28667  2938.40000   0.
    74.31333  2938.36667   0.
    74.82667  2938.43333   0.
    75.85333  2938.56667   0.
    76.36667  2938.63333   0.
    77.64500  2938.65000   0.
    78.92333  2938.66667   0.
    79.43667  2938.73333   0.
    80.72000  2938.85000   0.
    82.00333  2938.96667   0.
    82.51667  2939.03333   0.
    83.79500  2939.10000   0.
     0.08400  2959.57200   0.
     1.19600  2958.89800   0.
     2.30800  2958.22400   0.
     4.53000  2956.94200   0.
     5.64000  2956.33400   0.
     6.75000  2955.72600   0.
     7.86000  2955.11800   0.
    10.35750  2953.84750   0.
    11.74500  2953.18500   0.
    13.13250  2952.52250   0.
    15.90750  2951.24000   0.
    17.29500  2950.62000   0.
    18.68250  2950.00000   0.
    21.18200  2948.82200   0.
    22.29400  2948.26400   0.
    23.40600  2947.70600   0.
    24.51800  2947.14800   0.
    26.74000  2946.00600   0.
    27.85000  2945.42200   0.
    28.96000  2944.83800   0.
    30.07000  2944.25400   0.
    32.56750  2943.00000   0.
    33.95500  2942.33000   0.
    35.34250  2941.66000   0.
    38.11750  2940.39750   0.
    39.50500  2939.80500   0.
    40.89250  2939.21250   0.
    43.66750  2938.18250   0.
    45.05500  2937.74500   0.
    46.44250  2937.30750   0.
    49.22000  2936.51750   0.
    50.61000  2936.16500   0.
    52.00000  2935.81250   0.
    54.77750  2935.01750   0.
    56.16500  2934.57500   0.
    57.55250  2934.13250   0.
    60.32750  2933.25500   0.
    61.71500  2932.82000   0.
    63.10250  2932.38500   0.
    65.87750  2931.91500   0.
    67.26500  2931.88000   0.
    68.65250  2931.84500   0.
    71.43000  2931.69750   0.
    72.82000  2931.58500   0.
    74.21000  2931.47250   0.
    76.98750  2931.44500   0.
    78.37500  2931.53000   0.
    79.76250  2931.61500   0.
    82.53750  2931.75500   0.
    83.92500  2931.81000   0.
     6.60134  2937.05984   0.
    20.80435  2932.52560   0.
     3.78758  2946.36592   0.
    15.48523  2940.98228   0.
    29.30091  2934.50364   0.
    23.90594  2939.46561   0.
    40.87322  2931.62711   0.
     1.03219  2951.87344   0.
    10.83406  2946.32292   0.
    20.42668  2943.42459   0.
    48.80952  2930.83467   0.
    35.50309  2935.49258   0.
     7.54365  2949.73854   0.
    28.57967  2939.84283   0.
    15.90963  2945.83181   0.
    44.30452  2933.27820   0.
    -0.12722  2955.42655   0.
    24.47411  2943.04615   0.
     4.45051  2952.86019   0.
    40.01017  2935.22543   0.
    52.75593  2931.58993   0.
    13.75183  2934.27842   0.
    32.31862  2938.44653   0.
     0.40990  2931.04902   0.
    19.20708  2946.27332   0.
    57.19103  2930.55709   0.
    -0.97178  2947.27328   0.
    19.39705  2939.49643   0.
    11.08068  2950.12444   0.
    32.86215  2930.47012   0.
     7.41320  2941.82707   0.
    13.76382  2948.77946   0.
    27.17579  2942.79365   0.
     7.27112  2952.68663   0.
     2.71547  2954.94653   0.
    22.91159  2945.17994   0.
     2.00816  2941.86911   0.
    24.73355  2934.79062   0.
    47.86753  2934.00196   0.
    50.62083  2933.29089   0.
    60.15732  2930.28185   0.
    37.65425  2937.53830   0.
    44.64836  2929.77041   0.
    10.93416  2939.02064   0.
     4.26476  2949.76242   0.
    36.78915  2931.78219   0.
     7.36345  2946.13476   0.
    30.92470  2941.06806   0.
     6.19921  2931.10091   0.
    35.16618  2938.51604   0.
    16.36294  2929.87801   0.
    13.43632  2943.77014   0.
    42.64967  2935.50406   0.
    26.89596  2931.23775   0.
     1.59760  2936.73753   0.
    17.19200  2948.13905   0.
    -0.61497  2957.60981   0.
    26.49360  2937.36117   0.
     9.56799  2951.50953   0.
    17.55858  2943.77119   0.
    55.26825  2932.33039   0.
    22.03247  2936.46128   0.
    16.10828  2937.24515   0.
    22.48452  2941.40733   0.
    20.86327  2946.43955   0.
    29.71126  2937.35408   0.
    32.14062  2935.59882   0.
    45.26358  2935.44707   0.
    29.19256  2942.39482   0.
    25.22337  2944.48902   0.
    25.77440  2940.40763   0.
     5.12787  2951.33100   0.
     9.72036  2943.07255   0.
     0.63027  2944.64860   0.
     5.15669  2954.13690   0.
    33.80274  2940.56791   0.
     1.57076  2956.41210   0.
     9.31000  2947.97928   0.
     9.87726  2933.53233   0.
    53.60824  2932.85261   0.
    40.63972  2936.89193   0.
    13.47285  2946.23828   0.
    37.68088  2934.75035   0.
    46.32767  2931.88185   0.
    18.64740  2941.16071   0.
    13.09413  2950.32980   0.
    18.01744  2935.92389   0.
     0.55332  2948.73049   0.
     5.35766  2947.55011   0.
    42.44669  2933.52960   0.
    57.75733  2932.24094   0.
    23.68300  2931.83870   0.
    19.94397  2947.74183   0.
    61.81887  2931.15328   0.
[...]
POINT_DATA      1414
CELL_DATA      2568
SCALARS Resistivity(ohm.m) double 1
LOOKUP_TABLE default
          1168.93184          1752.11327          2295.95493          1128.57959           574.56764          2210.77815          1370.49690          1505.11687          1673.01573          1943.55078           745.17622          1891.39233           613.18360          2377.05503          2345.15337          1769.21656          1601.31876           396.54584           528.81952          2407.86251          1306.09297          1788.79914          1281.90069           595.76430          1904.22121           578.84110           277.04338          2176.57869          2251.60989          2212.59994           553.04967           579.64951          1677.56966           372.62395           364.88611          1599.12610           670.31686           969.67254          1238.62564          1516.22705          1852.53710           642.42657           487.00671          2376.85126           342.65497           408.66328          3029.25780           805.96022           604.76582           999.65009          2547.65488          1904.10188          1023.85825          1604.41516          2198.85945           938.05146           367.89648          2168.01159           450.13171          1101.09641           597.64292          2202.51824           396.12450          1742.40878           279.56155          1575.65843          2119.73536          1926.32166           299.27761           768.37068           560.55846           755.53025          2118.78561           408.25116           315.44073          2952.47717          1424.34221           392.70701           329.77819          2823.35928          2634.34858          1469.08256           426.31269           442.23897          2113.45932           834.13326           343.80001          2141.17414           894.01475          1832.99021          1070.08006           370.53460          2207.05525           351.80763          1680.66702          2066.83753           524.36301          1235.95373          2252.88893          1022.56891          1542.31036           596.92752           675.43486           679.43266          1043.45598          1722.87781           567.87428           939.40033          2030.66034          1315.04106           364.92719          1219.48726          2564.65299          1742.40129          2081.03245          1314.67684          1125.93004          1527.60506           479.03687           326.17903          2341.10992          1396.07697          3073.24062           735.54064           478.24039          2083.83257          2454.84843          3304.40629          1728.15569          1453.99784          2020.25768          1118.21945          1240.22847          2320.56750           809.54826          2835.71126           362.61381          1694.79217          1031.85079          1368.23862          1605.24577           574.03418           665.20017          1403.01711          1675.61325           616.51055           500.10999          1475.54650          1979.44010           565.85458          2198.65145          1968.72433           924.43995           622.17195          2309.34279           293.54166          1575.64371           359.09457          2277.43442          1288.25159          1190.82351           574.40943          2345.62245           513.45171          2107.99814           613.04742          1456.24734          1710.09880          1951.24052          1754.35202           659.15333           756.59683           726.01571           284.07530           416.66708           944.30122           849.96043          3467.12711          2668.78275          1139.88153          2266.06438          1437.46391          1978.49019           753.67162           594.45807           994.10587           902.75052           698.79904           853.35207          2537.30899          1223.70282          2469.80850           645.04164          2687.77782           283.18156           554.83979          2606.16586          1992.96067          1242.47553           438.70013           290.50248           803.61812          1716.24478          1455.44128          1701.02782          1067.49504          3706.95553          2190.30860           405.68133          2113.17332          1322.19535           639.86183           441.98543           341.82370           561.07343          1202.18318          2406.75574           539.98358          1251.46250           581.64954           884.74614          1330.93640          1117.78155           345.88883           645.07166           691.55244           374.13643           591.53530          1291.78346           322.05757          1097.89217          1897.89472          1412.57863          2914.55791          2374.59441          1603.91590          2416.85023          1441.42833          1393.74599          1372.04498          2641.70058           630.84169           990.10074           420.90686          2495.17613           277.53197          1831.34538           539.50511           401.64347          2015.60435           271.58099          1873.70892          1644.96636           729.66522          2009.25919           969.81995           602.43052           761.70925           691.32617          2840.50275           626.91918          2078.50045           438.93293           454.76160           471.30707          1583.31566           363.79897          2255.32168           937.18452          2269.46842          1020.45224          1942.97582          2439.58793          2208.69731           481.68055          1609.39069          2080.13032           432.53211           623.04426           598.07279           424.23193          1395.32171           288.40583           936.29359           897.53928          2309.01466           509.71702          2401.54905           622.96542           448.42616           959.21111           310.03107          2343.07362           695.38043          1963.39340          2285.84384          1423.20181           589.67713           459.44626           694.70772          1094.66542           479.64546          2464.08086          2587.97482           347.59027          1862.11853          1320.09582          1534.46417          1987.78093           373.95712           734.23773           612.71155           301.50946          2284.01745           734.15668           335.14283           542.57758          1205.53630          2728.11707           515.73175          3226.88223           373.02108           998.55198           438.71142           594.83588          1213.84456           501.59849          1400.49506          1069.45366          2901.76340          1754.69455          2115.64852           537.61111          1539.60349           337.69329           394.92462           643.48578           625.33999          3156.68569           560.50838          2194.90588           387.68190          2086.05552           396.26965           625.07555          1841.99930          1207.43709          1080.28094           483.80721          2185.23229           411.97937          2508.54799           815.24612           359.61993           504.25442          2117.21501           552.05084          1545.42559           321.72094           397.88639           794.96885          1530.05587           878.86182           544.07351          1358.64829           508.39682           352.15293          2354.75129          1680.44582          2637.17294           400.58743          1308.79435          1414.93338          1061.04560           299.95729          2703.15320           390.22944           492.77715           366.94172          2071.71174          1367.25299           393.01236          1811.08154          2417.79714           275.58712          1351.75247           609.17272          1371.67794           472.49168          1486.97890           737.22631           335.26738          1437.97278          1415.26597           411.79903           768.87228           592.89063          1401.00271          1761.34621          1026.14882           617.03799           655.11377          1350.44791          1446.56756          1319.24764           882.09211           577.54173           962.10385          2255.72395          1610.93188          1485.25776          2239.39773          1028.30984           637.50636          1227.62476          2442.78087           603.61649           946.56161           665.37401          1670.12963           982.72979           383.29897          2224.69313          1416.60765          1290.71608           289.85106          1583.87200           606.73335          1407.39921           430.60904          1335.27166           420.36080           398.91157          1815.46152          1048.51046          1473.27570          1485.42781           611.86727          1938.73329          1368.44734          3513.55996           573.54859          1195.08012          1976.86537          1163.65826          1099.58715          1292.12161          1223.94681          3958.53212           873.49860          3316.95316          1546.12165          1498.96811          1291.92641          1620.75476           826.08914          2215.19790           944.14787          1370.56920           376.90750          1897.22375          1337.10363           907.63863          1369.21020          2083.59050           835.13634           837.95234          1230.67843          1633.99290          1608.47976           819.88659          1826.04980           877.54878           296.34184          1902.68578          3701.63488          1075.82746           414.31811          1496.85210           703.01518          1168.40156          1809.50762           559.04860           489.94707          2031.14339          2756.22274          1300.38140           346.22709           603.36010           773.51792          1293.19464          1175.63593          1089.75078          1522.84720           826.12187          1469.37115           790.66355          1078.52480          2531.93848          1827.21244           614.93010           323.60095           612.55723          1287.97188           791.77629          1237.57321          3487.53598          1274.42394           362.90023           530.41734          1300.90759          1221.89907           867.50175           415.97206          3100.56500          1395.93244           375.37327          3194.22423          2292.82079           374.34313          1395.32157          1263.02528          1100.22404          1221.64134          1100.48374           580.45591          1564.30597          1444.98863          1468.77225          1354.33856           738.41592          1661.80854           396.25165          1289.04535           608.29125           378.62370           751.61429          1678.30289          1131.52981           958.95929           392.18856           402.42457          1680.22691          1173.42363          4156.91924          4227.66271          3683.90187          2421.52276          2074.61709          2265.94102          3357.44452          4265.87701           722.84624          4326.82088           462.25397          1116.43904          1404.34166           657.63140          3181.22234          5339.76887          1405.34284           421.27820          2296.01329          2623.29395           781.63280           934.98928          1477.35032          4418.63415          1507.53682          1943.77953           961.90161           633.52145          1339.63499          1495.92995           533.35667          3707.01646           509.00849          1486.79701          5057.89615          4236.87672          1736.09101          4618.07739           293.12611           730.70105           493.84821          2208.41299          2645.80273          1827.48690          3122.16146          1978.90350          2314.80625           722.70184          1646.17782          1381.51799          1756.24048          9332.63963          3769.77853           839.78114          4657.22076          4542.62760           814.51024           615.18297          5200.31959          2603.32870          4449.61422          4532.28953          1421.54649           988.10118           605.85125           593.65734           913.43325          4230.76870          1661.22986          1068.15037          1541.89134           326.08890          1023.62162          1715.13327          3770.93887          1086.21777           943.11043           619.49128           914.27577          1748.83659          1489.24405           853.32610          3657.74382          2705.27275          3493.74983          3841.15383          5453.62448          4169.96028          2838.50786           611.69774          3880.47209          1414.52503          1675.64999           607.10061          1382.26988           859.89559           368.18310          5448.57612          5399.75908          1547.99347          1663.33448          2743.12148          2744.41047          2816.08091          2939.09693          1013.10935          1512.51699           620.31427           866.05433           372.17473           524.12085           734.58564           559.74097          2241.82522          4448.71978          3639.68423          1536.75290          2369.68897          1292.34870          1839.78499          7992.89027          4818.80053          2107.27348           401.53225           552.12625          5507.20078           728.49299          3566.49389          4796.12344          1020.01844          2520.74630           701.57122           895.87848          1025.57989          2679.04353          2686.62252          2702.40706           625.96990           535.49775          1022.85677           381.81135           569.95888           426.77588          3918.18020          5332.50926           559.66617          3118.12429           981.15027          2270.89171          1110.72808           683.94237           643.73063           769.81029           732.96132          2053.13173           788.38623          1767.85607           733.51679          2129.71234          1723.12155          4081.59247          2442.10668           837.74045           590.10030           333.47405          3459.05447           801.28805           751.54027          1439.69155          2973.67041           720.13854           811.02655           531.36268          1441.52086          1295.42484          1763.19304          1429.19445           665.05310           727.15785           680.25328          2428.61840          1828.71728          1274.08019          8010.92168          1034.34294          1015.44432           882.54294          1920.62166          2462.78378          1493.65729          1566.44124          2170.26881          2414.17486           593.06779          6619.26498          1663.77281          2587.61214           896.45786          1029.28866          3937.43434          2906.76032           770.09241          1224.19390          3717.50050           599.25193           523.46472          1340.87860          2530.58362          5302.34169          1444.02919          6846.13375          1478.88201          1927.31022          1514.85505          1076.34597           425.64825           783.66959          2846.41751           602.66279          3916.49980           611.18560          3030.15902           887.32560           911.89240          1543.26965          1937.43064          3235.91969          5431.31344          2492.37536          1384.80182          1771.15701          1291.77494          5029.38020          7219.48405          1898.22659          1123.38734          3345.13604           690.41019          1021.52362           790.29451          2882.21791          1021.48284           917.85177           540.44358           655.93218          3883.80510          1204.15101           759.16914          5457.50329          3966.86317          2228.58126          1424.98670          7046.57602           756.54330          3227.81332          2917.68890          2023.04490          1325.58646          2890.39287          5105.93848          1768.25975           483.56539           709.84013           789.08637          2008.89418          1709.38820           783.04389           756.74258          6065.56860           857.04144          1313.01440          1811.04642          4048.94349          5131.87748           509.91007          1208.33502           942.45016           941.47436          1877.22726           848.25065           833.30362          1339.67286           730.43576           591.90158           387.73632           841.75741          3062.73511           491.58913          3028.30859          1619.40519          2115.94890          1545.26614          1970.88635          1508.48369           400.65848          4887.00589          1602.27273          1882.55847          2072.78723          2381.02822          5413.11817          1025.84025          5096.40214           525.27347           659.59147          1627.64364          1034.29183          7368.86814          2552.98199           920.58379          1614.69038          4091.91593          3590.15339           574.07443          4724.79502          1369.30455          2746.13727          1084.83509          3800.25513          4090.15374           525.75073          3366.81369          4174.48336          2627.95030          5659.95221           818.75778           730.62476          1035.65557          2415.58042           561.46890         10111.15946          4123.85428           558.58844          1865.13925          2020.49980          1965.51602           769.33367          1023.05752         13870.98210           710.43742          2557.52426          1338.90326           558.12399           833.92254          2949.29513          5559.49302          6325.45098          1900.05267          2040.25290          2355.57239          4335.86973           717.04797          1525.29115          2445.99200          1804.99333          5293.52246           639.99391          1025.89982          2634.33138           923.97727          3071.84494          2883.93794          6479.59955          3331.23766          1432.71896           954.33747           670.54066          5442.19031          7029.36605          2446.13748           239.00164           331.27233           893.98750           892.95423          6069.91285          1281.13107          1755.46871          3732.21527          2544.57934          6865.27610          5782.00509           358.55780           537.68807           877.12463          1300.72450           683.81477          4099.56880          4468.39770          1479.37466           738.05062          1030.63801          2545.26736          3640.68601          2739.26570          2074.25468          1045.93695          3538.72072          7388.58926           565.44353           578.96416          1666.71412          7563.21478          2572.05098          2991.35820          4406.95614           824.24126          1954.86596          4039.03147           532.78604          1465.95371          1024.78392          5837.68480           955.82310          1635.04929          3013.13913          5031.37001          5567.57580          5704.28882          4789.88042          4234.77678          1727.92517           869.97240          3265.69957         11113.91292           624.89540          2561.07465          3073.31641           302.31255          2177.45504          3924.91808          2756.51654           522.55109          4856.03929           734.02544          3624.27786          4509.87480          1853.93668           767.47862          2577.47599          3996.74677          5249.90988          5906.92699          5142.66140           618.15453           655.67568          1423.20424          4582.35856          1211.61865          2915.25418           973.67273           601.286