# vtk DataFile Version 3.0
Output from R2
ASCII
DATASET UNSTRUCTURED_GRID
POINTS       1414 double
     0.00000  2968.10000   0.
     1.54000  2966.60000   0.
     3.08000  2964.90000   0.
     4.61000  2964.10000   0.
     6.15000  2963.30000   0.
     7.69000  2962.60000   0.
     9.23000  2961.50000   0.
    10.76000  2960.70000   0.
    12.30000  2960.00000   0.
    13.84000  2959.30000   0.
    15.38000  2958.70000   0.
    16.91000  2958.10000   0.
    18.45000  2957.30000   0.
    19.99000  2956.60000   0.
    21.52000  2955.80000   0.
    23.06000  2955.00000   0.
    24.60000  2954.30000   0.
    26.14000  2953.50000   0.
    27.68000  2952.80000   0.
    29.21000  2951.90000   0.
    30.75000  2951.10000   0.
    32.29000  2950.20000   0.
    33.83000  2949.50000   0.
    35.36000  2948.70000   0.
    36.90000  2948.10000   0.
    38.44000  2947.30000   0.
    39.98000  2946.70000   0.
    41.51000  2946.10000   0.
    43.05000  2945.50000   0.
    44.59000  2945.10000   0.
    46.13000  2944.50000   0.
    47.66000  2944.10000   0.
    49.20000  2943.60000   0.
    50.74000  2943.40000   0.
    52.28000  2943.00000   0.
    53.81000  2942.50000   0.
    55.35000  2942.10000   0.
    56.89000  2941.60000   0.
    58.43000  2941.00000   0.
    59.96000  2940.60000   0.
    61.50000  2940.10000   0.
    63.04000  2939.50000   0.
    64.58000  2939.10000   0.
    66.11000  2939.20000   0.
    67.65000  2939.20000   0.
    69.19000  2939.10000   0.
    70.73000  2938.90000   0.
    72.26000  2938.60000   0.
    73.80000  2938.30000   0.
    75.34000  2938.50000   0.
    76.88000  2938.70000   0.
    78.41000  2938.60000   0.
    79.95000  2938.80000   0.
    81.49000  2938.90000   0.
    83.03000  2939.10000   0.
    84.56000  2939.10000   0.
     3.42000  2957.55000   0.
     8.97000  2954.51000   0.
    14.52000  2951.86000   0.
    20.07000  2949.38000   0.
    25.63000  2946.59000   0.
    31.18000  2943.67000   0.
    36.73000  2940.99000   0.
    42.28000  2938.62000   0.
    47.83000  2936.87000   0.
    53.39000  2935.46000   0.
    58.94000  2933.69000   0.
    64.49000  2931.95000   0.
    70.04000  2931.81000   0.
    75.60000  2931.36000   0.
    81.15000  2931.70000   0.
     0.51333  2967.60000   0.
     1.02667  2967.10000   0.
     2.05333  2966.03333   0.
     2.56667  2965.46667   0.
     3.59000  2964.63333   0.
     4.10000  2964.36667   0.
     5.12333  2963.83333   0.
     5.63667  2963.56667   0.
     6.66333  2963.06667   0.
     7.17667  2962.83333   0.
     8.20333  2962.23333   0.
     8.71667  2961.86667   0.
     9.74000  2961.23333   0.
    10.25000  2960.96667   0.
    11.27333  2960.46667   0.
    11.78667  2960.23333   0.
    12.81333  2959.76667   0.
    13.32667  2959.53333   0.
    14.35333  2959.10000   0.
    14.86667  2958.90000   0.
    15.89000  2958.50000   0.
    16.40000  2958.30000   0.
    17.42333  2957.83333   0.
    17.93667  2957.56667   0.
    18.96333  2957.06667   0.
    19.47667  2956.83333   0.
    20.50000  2956.33333   0.
    21.01000  2956.06667   0.
    22.03333  2955.53333   0.
    22.54667  2955.26667   0.
    23.57333  2954.76667   0.
    24.08667  2954.53333   0.
    25.11333  2954.03333   0.
    25.62667  2953.76667   0.
    26.65333  2953.26667   0.
    27.16667  2953.03333   0.
    28.19000  2952.50000   0.
    28.70000  2952.20000   0.
    29.72333  2951.63333   0.
    30.23667  2951.36667   0.
    31.26333  2950.80000   0.
    31.77667  2950.50000   0.
    32.80333  2949.96667   0.
    33.31667  2949.73333   0.
    34.34000  2949.23333   0.
    34.85000  2948.96667   0.
    35.87333  2948.50000   0.
    36.38667  2948.30000   0.
    37.41333  2947.83333   0.
    37.92667  2947.56667   0.
    38.95333  2947.10000   0.
    39.46667  2946.90000   0.
    40.49000  2946.50000   0.
    41.00000  2946.30000   0.
    42.02333  2945.90000   0.
    42.53667  2945.70000   0.
    43.56333  2945.36667   0.
    44.07667  2945.23333   0.
    45.10333  2944.90000   0.
    45.61667  2944.70000   0.
    46.64000  2944.36667   0.
    47.15000  2944.23333   0.
    48.17333  2943.93333   0.
    48.68667  2943.76667   0.
    49.71333  2943.53333   0.
    50.22667  2943.46667   0.
    51.25333  2943.26667   0.
    51.76667  2943.13333   0.
    52.79000  2942.83333   0.
    53.30000  2942.66667   0.
    54.32333  2942.36667   0.
    54.83667  2942.23333   0.
    55.86333  2941.93333   0.
    56.37667  2941.76667   0.
    57.40333  2941.40000   0.
    57.91667  2941.20000   0.
    58.94000  2940.86667   0.
    59.45000  2940.73333   0.
    60.47333  2940.43333   0.
    60.98667  2940.26667   0.
    62.01333  2939.90000   0.
    62.52667  2939.70000   0.
    63.55333  2939.36667   0.
    64.06667  2939.23333   0.
    65.34500  2939.15000   0.
    66.88000  2939.20000   0.
    68.42000  2939.15000   0.
    69.70333  2939.03333   0.
    70.21667  2938.96667   0.
    71.24000  2938.80000   0.
    71.75000  2938.70000   0.
    72.77333  2938.50000   0.
    73.28667  2938.40000   0.
    74.31333  2938.36667   0.
    74.82667  2938.43333   0.
    75.85333  2938.56667   0.
    76.36667  2938.63333   0.
    77.64500  2938.65000   0.
    78.92333  2938.66667   0.
    79.43667  2938.73333   0.
    80.72000  2938.85000   0.
    82.00333  2938.96667   0.
    82.51667  2939.03333   0.
    83.79500  2939.10000   0.
     0.08400  2959.57200   0.
     1.19600  2958.89800   0.
     2.30800  2958.22400   0.
     4.53000  2956.94200   0.
     5.64000  2956.33400   0.
     6.75000  2955.72600   0.
     7.86000  2955.11800   0.
    10.35750  2953.84750   0.
    11.74500  2953.18500   0.
    13.13250  2952.52250   0.
    15.90750  2951.24000   0.
    17.29500  2950.62000   0.
    18.68250  2950.00000   0.
    21.18200  2948.82200   0.
    22.29400  2948.26400   0.
    23.40600  2947.70600   0.
    24.51800  2947.14800   0.
    26.74000  2946.00600   0.
    27.85000  2945.42200   0.
    28.96000  2944.83800   0.
    30.07000  2944.25400   0.
    32.56750  2943.00000   0.
    33.95500  2942.33000   0.
    35.34250  2941.66000   0.
    38.11750  2940.39750   0.
    39.50500  2939.80500   0.
    40.89250  2939.21250   0.
    43.66750  2938.18250   0.
    45.05500  2937.74500   0.
    46.44250  2937.30750   0.
    49.22000  2936.51750   0.
    50.61000  2936.16500   0.
    52.00000  2935.81250   0.
    54.77750  2935.01750   0.
    56.16500  2934.57500   0.
    57.55250  2934.13250   0.
    60.32750  2933.25500   0.
    61.71500  2932.82000   0.
    63.10250  2932.38500   0.
    65.87750  2931.91500   0.
    67.26500  2931.88000   0.
    68.65250  2931.84500   0.
    71.43000  2931.69750   0.
    72.82000  2931.58500   0.
    74.21000  2931.47250   0.
    76.98750  2931.44500   0.
    78.37500  2931.53000   0.
    79.76250  2931.61500   0.
    82.53750  2931.75500   0.
    83.92500  2931.81000   0.
     6.60134  2937.05984   0.
    20.80435  2932.52560   0.
     3.78758  2946.36592   0.
    15.48523  2940.98228   0.
    29.30091  2934.50364   0.
    23.90594  2939.46561   0.
    40.87322  2931.62711   0.
     1.03219  2951.87344   0.
    10.83406  2946.32292   0.
    20.42668  2943.42459   0.
    48.80952  2930.83467   0.
    35.50309  2935.49258   0.
     7.54365  2949.73854   0.
    28.57967  2939.84283   0.
    15.90963  2945.83181   0.
    44.30452  2933.27820   0.
    -0.12722  2955.42655   0.
    24.47411  2943.04615   0.
     4.45051  2952.86019   0.
    40.01017  2935.22543   0.
    52.75593  2931.58993   0.
    13.75183  2934.27842   0.
    32.31862  2938.44653   0.
     0.40990  2931.04902   0.
    19.20708  2946.27332   0.
    57.19103  2930.55709   0.
    -0.97178  2947.27328   0.
    19.39705  2939.49643   0.
    11.08068  2950.12444   0.
    32.86215  2930.47012   0.
     7.41320  2941.82707   0.
    13.76382  2948.77946   0.
    27.17579  2942.79365   0.
     7.27112  2952.68663   0.
     2.71547  2954.94653   0.
    22.91159  2945.17994   0.
     2.00816  2941.86911   0.
    24.73355  2934.79062   0.
    47.86753  2934.00196   0.
    50.62083  2933.29089   0.
    60.15732  2930.28185   0.
    37.65425  2937.53830   0.
    44.64836  2929.77041   0.
    10.93416  2939.02064   0.
     4.26476  2949.76242   0.
    36.78915  2931.78219   0.
     7.36345  2946.13476   0.
    30.92470  2941.06806   0.
     6.19921  2931.10091   0.
    35.16618  2938.51604   0.
    16.36294  2929.87801   0.
    13.43632  2943.77014   0.
    42.64967  2935.50406   0.
    26.89596  2931.23775   0.
     1.59760  2936.73753   0.
    17.19200  2948.13905   0.
    -0.61497  2957.60981   0.
    26.49360  2937.36117   0.
     9.56799  2951.50953   0.
    17.55858  2943.77119   0.
    55.26825  2932.33039   0.
    22.03247  2936.46128   0.
    16.10828  2937.24515   0.
    22.48452  2941.40733   0.
    20.86327  2946.43955   0.
    29.71126  2937.35408   0.
    32.14062  2935.59882   0.
    45.26358  2935.44707   0.
    29.19256  2942.39482   0.
    25.22337  2944.48902   0.
    25.77440  2940.40763   0.
     5.12787  2951.33100   0.
     9.72036  2943.07255   0.
     0.63027  2944.64860   0.
     5.15669  2954.13690   0.
    33.80274  2940.56791   0.
     1.57076  2956.41210   0.
     9.31000  2947.97928   0.
     9.87726  2933.53233   0.
    53.60824  2932.85261   0.
    40.63972  2936.89193   0.
    13.47285  2946.23828   0.
    37.68088  2934.75035   0.
    46.32767  2931.88185   0.
    18.64740  2941.16071   0.
    13.09413  2950.32980   0.
    18.01744  2935.92389   0.
     0.55332  2948.73049   0.
     5.35766  2947.55011   0.
    42.44669  2933.52960   0.
    57.75733  2932.24094   0.
    23.68300  2931.83870   0.
    19.94397  2947.74183   0.
    61.81887  2931.15328   0.
[...]
POINT_DATA      1414
CELL_DATA      2568
SCALARS Resistivity(ohm.m) double 1
LOOKUP_TABLE default
          1277.07640          1618.94622          2095.45954          1228.22397           477.89311          2010.39633          1475.09329          1781.78818          1484.63491          1948.32585           756.55739          2017.77050           584.25470          2229.70922          2168.77871          2060.73314          1448.45733           369.57621           503.44825          2341.07429          1329.67714          2002.64362          1275.78271           568.26392          1674.60122           586.66580           246.65651          1975.55608          2044.38967          2038.93299           506.59629           580.97692          1548.09892           381.25705           365.83448          1838.99762           658.08019          1061.78297          1230.67064          1712.67096          1636.01051           645.47493           556.76728          2202.92520           384.60134           410.21931          3196.02173           834.78058           595.71906           895.68479          2667.85482          1665.60143          1120.81308          1432.34356          2222.59675          1019.18285           400.37851          1992.66017           457.27448          1236.36822           497.73717          1972.39256           361.42546          2026.96697           267.78217          1407.24945          1903.10368          1882.90929           305.86399           839.69904           556.28148           711.24286          1874.72872           455.69002           269.98610          3013.58103          1528.85748           375.27125           276.95006          2952.55227          2744.98791          1737.42827           464.59663           445.91145          1865.42309           911.69626           374.13560          1918.53685           811.37080          1803.35396          1190.79524           426.76871          2009.19871           304.23123          1873.76700          1815.21842           505.30182          1422.68250          2037.03539          1128.46753          1549.39971           508.57152           636.78204           681.12112          1022.12501          1518.52847           470.55295          1010.58335          2161.52404          1528.23263           323.78089          1226.26931          2464.93343          1794.28273          1842.72603          1210.17337          1090.37115          1409.60528           536.90217           341.48116          2210.59422          1457.90885          3224.92579           734.39261           464.66431          1858.25165          2307.44182          3510.08743          1925.31692          1668.38422          1855.41302          1198.92058          1189.87772          2151.58217           840.96591          2826.94197           317.75230          1496.99124          1135.44402          1249.56710          1518.37029           484.02048           627.83327          1564.78209          1514.50052           545.40386           474.20659          1466.54665          1745.97963           603.94506          2083.72800          1720.82228           996.86243           633.13402          2175.00329           246.39042          1908.32229           361.95023          2070.47494          1222.58037          1359.25501           498.02889          2163.94248           444.78840          1965.92788           518.87947          1643.32314          2009.93853          1726.98531          1560.23507           663.28536           769.39407           714.01206           273.43147           466.66566           937.74384           918.24768          3670.90886          2596.47957          1290.04810          2096.15619          1711.35045          1800.13003           755.94691           502.56424          1089.71622           980.81553           693.02772           847.55236          2472.33674          1195.51896          2384.57226           686.55735          2744.51092           278.28260           587.83883          2650.45128          1884.06670          1342.93461           497.42633           240.15207           762.06359          1862.32143          1346.07211          2022.13103          1169.14433          3939.34462          2174.10340           470.81047          2049.45354          1289.96827           579.41196           487.96160           352.26688           585.85694          1291.83089          2252.69405           535.38064          1381.13616           541.24609           828.81094          1531.79732          1255.68110           343.00586           601.04904           748.23007           325.06472           639.63723          1192.01315           366.00385          1128.88765          2109.90087          1432.14227          2909.32564          2313.30003          1930.59999          2392.68742          1722.08856          1605.23621          1378.92403          2636.75130           609.47438          1082.68967           481.47971          2458.34491           236.95583          1739.28883           458.81401           364.44581          1949.69300           230.34236          2102.15627          1924.75600           762.23350          1799.70316          1062.29599           614.65040           791.64646           672.26681          2791.57691           555.98953          1987.58855           417.40037           525.98138           461.02474          1870.91263           383.98041          2055.89962          1023.35868          2171.96415          1045.48186          2076.14248          2282.69512          2009.62507           479.63865          1571.19900          2103.45732           425.86312           632.28631           610.12204           410.87367          1281.17465           259.62041          1017.13833           934.77587          2105.95930           548.18173          2377.90041           579.33972           412.26878           927.95504           280.47316          2207.60288           768.43900          1750.71517          2119.82020          1595.88488           529.27665           529.26977           708.85194          1017.01196           473.74814          2516.47776          2517.11468           356.28744          1629.21152          1259.79112          1447.18278          1749.89980           325.52954           788.97905           556.93248           319.41602          2098.34160           731.21006           316.51236           453.60610          1302.11400          2645.67407           511.83293          3351.72763           440.62575           936.13275           396.36780           588.80468          1227.60376           456.48109          1276.35974          1159.50399          2969.13794          1667.19069          1929.11580           610.37691          1796.45957           396.30748           456.30657           658.78657           561.77143          3283.28643           598.27056          1974.02698           344.26065          1892.24482           401.41057           566.41742          1612.73520          1378.02798          1103.33138           449.68829          1973.83775           378.50181          2409.17759           862.49068           331.37894           525.44548          1882.27488           481.42582          1742.63305           359.82218           464.35039           777.25780          1371.86370           923.83041           620.39425          1279.21991           581.67315           332.77030          2199.64600          1902.24285          2538.78070           386.20534          1223.78161          1359.90740          1044.54881           319.24090          2698.50532           452.96501           487.83008           368.11160          1827.38460          1339.70599           352.20045          1591.23145          2351.60809           226.95771          1258.19876           529.03368          1618.22309           494.65291          1757.51520           814.87001           389.46769          1315.84108          1545.76520           368.83989           775.13440           672.87341          1606.23785          1551.61012          1107.69868           532.32401           734.40303          1410.65747          1308.66806          1407.59461           943.01759           603.28741          1051.08436          2068.93942          1700.00272          1648.88884          2027.43511          1085.88765           582.84402          1208.65941          2491.65914           621.83235           855.84969           655.94310          1848.61077          1040.77013           447.68698          2022.00292          1660.40861          1434.34626           300.07801          1896.71812           529.37411          1325.34553           427.18118          1459.54105           406.65530           357.99930          2013.50624          1168.80464          1422.07775          1600.45519           602.27854          1696.71700          1522.74915          3759.64153           573.22683          1254.35010          2103.55735          1211.41304          1237.90808          1199.86262          1264.12517          4120.04901           933.62712          3512.83642          1616.55487          1800.55273          1383.28686          1953.86764           863.34201          1988.47068          1029.12935          1610.28555           367.54540          1713.42501          1367.01924           982.93236          1589.98943          1934.64089           874.98692           849.37387          1372.18447          1931.13327          1765.19484           746.30200          1649.85979           935.05843           300.71410          1748.96034          3856.89400          1165.87868           463.94535          1789.20012           697.14820          1098.64716          2058.96146           568.31819           489.28360          1921.52079          2908.68853          1491.31120           309.67129           630.98419           789.34311          1316.52095          1309.36117          1169.98216          1364.82918           869.71273          1324.22582           813.98569          1206.08097          2398.59342          1624.06871           617.35250           285.59330           551.77111          1459.67242           813.17984          1400.69017          3561.25013          1353.30617           425.26957           532.29467          1506.62938          1364.66748           920.83444           483.56126          3147.74063          1269.90295           437.72099          3222.70152          2131.84830           366.39319          1531.69574          1310.68727          1209.50549          1391.94082          1221.68525           648.12147          1874.16587          1308.05163          1328.66032          1539.14793           747.86217          1965.98727           368.74690          1413.74757           684.68582           365.57676           758.20067          1714.86876          1262.87425          1047.97509           371.54268           465.14367          1649.50310          1301.84084          4068.88279          4161.59342          3440.00118          2364.40952          2158.74841          2243.64627          3401.06715          4581.15155           697.75772          4439.41014           489.08045          1101.23336          1570.15649           672.85881          3588.21693          5025.22434          1341.73762           463.05767          2347.65103          2788.43246           753.05742           949.32728          1359.28798          4818.41479          1602.53073          2171.11410           946.23453           661.40709          1373.95932          1441.37281           564.94151          3856.46847           461.16467          1410.20718          5099.15546          4343.68422          1800.95072          4712.66691           242.08867           800.65042           454.98463          2076.22938          2862.35831          1838.66518          3218.78869          1996.35164          2543.00581           733.86016          1801.29441          1411.60180          1815.22603          9249.86125          3576.59809           964.92181          5187.92439          4266.90193           817.21569           598.71137          4966.51442          2673.27804          4745.17966          4690.21449          1370.82921           903.70093           614.26205           572.46012           813.18241          4242.82297          1716.28258          1029.49985          1629.08329           275.62717          1082.26920          1887.03045          3571.22033          1139.16864           926.26242           701.45060           905.23288          1723.51748          1455.52538           898.87577          3348.81766          2747.41424          3707.17397          3568.49500          6102.36826          4273.82714          2630.30922           640.01970          4271.65812          1311.07688          1647.90328           634.20902          1294.07880           886.63982           376.10253          5864.51830          5201.90484          1461.89469          1656.52424          2950.62723          2406.94871          2772.71878          2584.90373           938.70154          1534.39227           627.39254           854.90889           407.43966           467.98923           750.47813           590.96281          2248.77789          4381.15913          3903.13459          1542.70648          2386.95239          1481.63139          1694.54420          8054.24194          5042.23067          2082.34082           434.27254           561.41434          5151.80423           713.18518          3507.81743          4737.81224          1053.24470          2316.52694           675.70238           878.33491          1061.33354          2520.98468          2523.33908          2755.22288           598.02966           568.12694          1177.81949           336.09333           661.04985           482.04664          3723.31935          5395.19240           580.14176          2998.17377           988.77000          2470.14832          1226.33803           699.59621           631.77488           782.02499           675.08217          2014.21638           795.86815          1624.08815           724.17737          2334.30592          1758.40354          4537.99096          2499.31237           810.18453           597.13737           285.61652          3270.02848           760.11921           729.04335          1526.63735          2878.73869           730.86846           785.96085           597.61663          1443.10249          1275.19266          1762.82487          1436.38243           623.49052           726.85613           674.39780          2664.81461          1755.57230          1394.74647          7879.01308          1049.67201          1059.88333          1039.44342          1941.92602          2632.64036          1620.32612          1525.78538          2228.13844          2558.42417           592.96575          7374.40975          1645.19530          2822.25819           951.38142          1190.92532          4237.60372          2786.48321           702.42547          1250.65728          3429.43176           572.29624           499.94907          1255.56994          2548.95030          5577.55747          1489.44813          7094.26383          1472.84223          1932.14057          1497.67344          1196.43546           506.23002           757.19114          2905.25171           655.09446          3942.98932           598.21836          3383.20996           884.28296           924.25033          1635.27635          2028.16589          3194.78196          5368.66085          2615.06930          1483.58513          1942.93335          1378.15792          5287.18618          7135.45554          1901.81894          1031.54686          3083.97543           650.56199          1144.61311           880.92529          2814.92874          1159.49781          1063.88517           508.24940           602.44707          4131.05631          1178.84051           739.41911          5897.23396          4374.73027          1967.73857          1376.99144          7084.52716           852.41468          2823.97017          3209.64958          2095.97994          1330.64336          2972.60258          5556.37175          2106.87763           475.38635           688.38158           959.28204          2073.30944          1897.01191           726.66427           749.19839          6081.06227           827.82736          1229.25912          1933.80751          3997.10589          5071.17359           507.00380          1473.25463           852.56020          1161.79274          2042.11074           741.09412           935.54928          1403.07330           761.32301           605.17629           418.77336           862.38628          3244.14973           463.06924          3234.93697          1962.72257          2012.56736          1450.08559          2096.21353          1522.02965           435.74194          4649.30666          1659.16225          1846.57797          1913.09686          2195.38700          5441.50382          1017.37032          5717.38906           506.76428           660.62452          1649.29637          1169.22416          7442.58388          2729.23730           981.74103          1624.01009          4444.88437          3328.90037           560.79458          4973.28088          1514.58670          2789.70674          1055.15276          3459.16714          3983.74496           458.54043          3343.29923          4136.01517          2973.09732          5646.58808           805.30538           780.89490          1160.68527          2211.83858           558.01091          9384.12821          3970.30740           578.58195          1972.09964          2141.65202          2266.57554           761.01674          1158.44426         13162.49911           719.78234          2593.62997          1272.09883           552.62685           759.92945          2415.16012          5351.94612          5997.20568          1952.31140          2298.18536          2442.48232          4587.55690           731.35981          1485.05431          2316.17802          1837.83868          5372.95918           632.82456          1160.61856          2829.05912           827.34092          3420.33032          2619.82171          7048.74673          3491.91137          1433.42253          1156.70769           601.56169          5362.58528          7463.42232          2260.71742           239.85153           357.83252           887.52500           890.40223          6281.42516          1371.64995          2011.89349          3421.85314          2735.73764          6212.97977          5761.31323           412.66116           527.71810           770.63275          1291.27467           652.65482          4101.15431          3738.13322          1516.79519           765.86316          1050.25593          2311.40122          3650.61821          2743.04244          1992.45610          1011.49002          3670.26400          7916.80054           550.54423           621.62662          1626.30464          7915.46709          2499.44919          2682.47075          4544.09249           842.85998          1955.59753          4336.17369           513.90629          1550.65387          1011.80344          5894.50952          1019.70718          1743.76104          2912.21434          5534.75320          5517.98798          6213.25573          4469.58223          4186.73183          1537.32524           896.89866          3020.53680         10776.04581           635.57388          2312.83519          2943.56021           258.90185          2430.40322          3802.60828          2713.27778           472.15220          4638.03342           802.09106          3354.65216          4287.92731          1977.15681           769.50603          2722.23560          3759.84140          4956.51350          5960.40266          5711.54766           589.06353           625.20773          1473.58421          4721.89003          1267.22887          2718.13340          1026.45663           599.861