# vtk DataFile Version 3.0
Output from R2
ASCII
DATASET UNSTRUCTURED_GRID
POINTS       1414 double
     0.00000  2968.10000   0.
     1.54000  2966.60000   0.
     3.08000  2964.90000   0.
     4.61000  2964.10000   0.
     6.15000  2963.30000   0.
     7.69000  2962.60000   0.
     9.23000  2961.50000   0.
    10.76000  2960.70000   0.
    12.30000  2960.00000   0.
    13.84000  2959.30000   0.
    15.38000  2958.70000   0.
    16.91000  2958.10000   0.
    18.45000  2957.30000   0.
    19.99000  2956.60000   0.
    21.52000  2955.80000   0.
    23.06000  2955.00000   0.
    24.60000  2954.30000   0.
    26.14000  2953.50000   0.
    27.68000  2952.80000   0.
    29.21000  2951.90000   0.
    30.75000  2951.10000   0.
    32.29000  2950.20000   0.
    33.83000  2949.50000   0.
    35.36000  2948.70000   0.
    36.90000  2948.10000   0.
    38.44000  2947.30000   0.
    39.98000  2946.70000   0.
    41.51000  2946.10000   0.
    43.05000  2945.50000   0.
    44.59000  2945.10000   0.
    46.13000  2944.50000   0.
    47.66000  2944.10000   0.
    49.20000  2943.60000   0.
    50.74000  2943.40000   0.
    52.28000  2943.00000   0.
    53.81000  2942.50000   0.
    55.35000  2942.10000   0.
    56.89000  2941.60000   0.
    58.43000  2941.00000   0.
    59.96000  2940.60000   0.
    61.50000  2940.10000   0.
    63.04000  2939.50000   0.
    64.58000  2939.10000   0.
    66.11000  2939.20000   0.
    67.65000  2939.20000   0.
    69.19000  2939.10000   0.
    70.73000  2938.90000   0.
    72.26000  2938.60000   0.
    73.80000  2938.30000   0.
    75.34000  2938.50000   0.
    76.88000  2938.70000   0.
    78.41000  2938.60000   0.
    79.95000  2938.80000   0.
    81.49000  2938.90000   0.
    83.03000  2939.10000   0.
    84.56000  2939.10000   0.
     3.42000  2957.55000   0.
     8.97000  2954.51000   0.
    14.52000  2951.86000   0.
    20.07000  2949.38000   0.
    25.63000  2946.59000   0.
    31.18000  2943.67000   0.
    36.73000  2940.99000   0.
    42.28000  2938.62000   0.
    47.83000  2936.87000   0.
    53.39000  2935.46000   0.
    58.94000  2933.69000   0.
    64.49000  2931.95000   0.
    70.04000  2931.81000   0.
    75.60000  2931.36000   0.
    81.15000  2931.70000   0.
     0.51333  2967.60000   0.
     1.02667  2967.10000   0.
     2.05333  2966.03333   0.
     2.56667  2965.46667   0.
     3.59000  2964.63333   0.
     4.10000  2964.36667   0.
     5.12333  2963.83333   0.
     5.63667  2963.56667   0.
     6.66333  2963.06667   0.
     7.17667  2962.83333   0.
     8.20333  2962.23333   0.
     8.71667  2961.86667   0.
     9.74000  2961.23333   0.
    10.25000  2960.96667   0.
    11.27333  2960.46667   0.
    11.78667  2960.23333   0.
    12.81333  2959.76667   0.
    13.32667  2959.53333   0.
    14.35333  2959.10000   0.
    14.86667  2958.90000   0.
    15.89000  2958.50000   0.
    16.40000  2958.30000   0.
    17.42333  2957.83333   0.
    17.93667  2957.56667   0.
    18.96333  2957.06667   0.
    19.47667  2956.83333   0.
    20.50000  2956.33333   0.
    21.01000  2956.06667   0.
    22.03333  2955.53333   0.
    22.54667  2955.26667   0.
    23.57333  2954.76667   0.
    24.08667  2954.53333   0.
    25.11333  2954.03333   0.
    25.62667  2953.76667   0.
    26.65333  2953.26667   0.
    27.16667  2953.03333   0.
    28.19000  2952.50000   0.
    28.70000  2952.20000   0.
    29.72333  2951.63333   0.
    30.23667  2951.36667   0.
    31.26333  2950.80000   0.
    31.77667  2950.50000   0.
    32.80333  2949.96667   0.
    33.31667  2949.73333   0.
    34.34000  2949.23333   0.
    34.85000  2948.96667   0.
    35.87333  2948.50000   0.
    36.38667  2948.30000   0.
    37.41333  2947.83333   0.
    37.92667  2947.56667   0.
    38.95333  2947.10000   0.
    39.46667  2946.90000   0.
    40.49000  2946.50000   0.
    41.00000  2946.30000   0.
    42.02333  2945.90000   0.
    42.53667  2945.70000   0.
    43.56333  2945.36667   0.
    44.07667  2945.23333   0.
    45.10333  2944.90000   0.
    45.61667  2944.70000   0.
    46.64000  2944.36667   0.
    47.15000  2944.23333   0.
    48.17333  2943.93333   0.
    48.68667  2943.76667   0.
    49.71333  2943.53333   0.
    50.22667  2943.46667   0.
    51.25333  2943.26667   0.
    51.76667  2943.13333   0.
    52.79000  2942.83333   0.
    53.30000  2942.66667   0.
    54.32333  2942.36667   0.
    54.83667  2942.23333   0.
    55.86333  2941.93333   0.
    56.37667  2941.76667   0.
    57.40333  2941.40000   0.
    57.91667  2941.20000   0.
    58.94000  2940.86667   0.
    59.45000  2940.73333   0.
    60.47333  2940.43333   0.
    60.98667  2940.26667   0.
    62.01333  2939.90000   0.
    62.52667  2939.70000   0.
    63.55333  2939.36667   0.
    64.06667  2939.23333   0.
    65.34500  2939.15000   0.
    66.88000  2939.20000   0.
    68.42000  2939.15000   0.
    69.70333  2939.03333   0.
    70.21667  2938.96667   0.
    71.24000  2938.80000   0.
    71.75000  2938.70000   0.
    72.77333  2938.50000   0.
    73.28667  2938.40000   0.
    74.31333  2938.36667   0.
    74.82667  2938.43333   0.
    75.85333  2938.56667   0.
    76.36667  2938.63333   0.
    77.64500  2938.65000   0.
    78.92333  2938.66667   0.
    79.43667  2938.73333   0.
    80.72000  2938.85000   0.
    82.00333  2938.96667   0.
    82.51667  2939.03333   0.
    83.79500  2939.10000   0.
     0.08400  2959.57200   0.
     1.19600  2958.89800   0.
     2.30800  2958.22400   0.
     4.53000  2956.94200   0.
     5.64000  2956.33400   0.
     6.75000  2955.72600   0.
     7.86000  2955.11800   0.
    10.35750  2953.84750   0.
    11.74500  2953.18500   0.
    13.13250  2952.52250   0.
    15.90750  2951.24000   0.
    17.29500  2950.62000   0.
    18.68250  2950.00000   0.
    21.18200  2948.82200   0.
    22.29400  2948.26400   0.
    23.40600  2947.70600   0.
    24.51800  2947.14800   0.
    26.74000  2946.00600   0.
    27.85000  2945.42200   0.
    28.96000  2944.83800   0.
    30.07000  2944.25400   0.
    32.56750  2943.00000   0.
    33.95500  2942.33000   0.
    35.34250  2941.66000   0.
    38.11750  2940.39750   0.
    39.50500  2939.80500   0.
    40.89250  2939.21250   0.
    43.66750  2938.18250   0.
    45.05500  2937.74500   0.
    46.44250  2937.30750   0.
    49.22000  2936.51750   0.
    50.61000  2936.16500   0.
    52.00000  2935.81250   0.
    54.77750  2935.01750   0.
    56.16500  2934.57500   0.
    57.55250  2934.13250   0.
    60.32750  2933.25500   0.
    61.71500  2932.82000   0.
    63.10250  2932.38500   0.
    65.87750  2931.91500   0.
    67.26500  2931.88000   0.
    68.65250  2931.84500   0.
    71.43000  2931.69750   0.
    72.82000  2931.58500   0.
    74.21000  2931.47250   0.
    76.98750  2931.44500   0.
    78.37500  2931.53000   0.
    79.76250  2931.61500   0.
    82.53750  2931.75500   0.
    83.92500  2931.81000   0.
     6.60134  2937.05984   0.
    20.80435  2932.52560   0.
     3.78758  2946.36592   0.
    15.48523  2940.98228   0.
    29.30091  2934.50364   0.
    23.90594  2939.46561   0.
    40.87322  2931.62711   0.
     1.03219  2951.87344   0.
    10.83406  2946.32292   0.
    20.42668  2943.42459   0.
    48.80952  2930.83467   0.
    35.50309  2935.49258   0.
     7.54365  2949.73854   0.
    28.57967  2939.84283   0.
    15.90963  2945.83181   0.
    44.30452  2933.27820   0.
    -0.12722  2955.42655   0.
    24.47411  2943.04615   0.
     4.45051  2952.86019   0.
    40.01017  2935.22543   0.
    52.75593  2931.58993   0.
    13.75183  2934.27842   0.
    32.31862  2938.44653   0.
     0.40990  2931.04902   0.
    19.20708  2946.27332   0.
    57.19103  2930.55709   0.
    -0.97178  2947.27328   0.
    19.39705  2939.49643   0.
    11.08068  2950.12444   0.
    32.86215  2930.47012   0.
     7.41320  2941.82707   0.
    13.76382  2948.77946   0.
    27.17579  2942.79365   0.
     7.27112  2952.68663   0.
     2.71547  2954.94653   0.
    22.91159  2945.17994   0.
     2.00816  2941.86911   0.
    24.73355  2934.79062   0.
    47.86753  2934.00196   0.
    50.62083  2933.29089   0.
    60.15732  2930.28185   0.
    37.65425  2937.53830   0.
    44.64836  2929.77041   0.
    10.93416  2939.02064   0.
     4.26476  2949.76242   0.
    36.78915  2931.78219   0.
     7.36345  2946.13476   0.
    30.92470  2941.06806   0.
     6.19921  2931.10091   0.
    35.16618  2938.51604   0.
    16.36294  2929.87801   0.
    13.43632  2943.77014   0.
    42.64967  2935.50406   0.
    26.89596  2931.23775   0.
     1.59760  2936.73753   0.
    17.19200  2948.13905   0.
    -0.61497  2957.60981   0.
    26.49360  2937.36117   0.
     9.56799  2951.50953   0.
    17.55858  2943.77119   0.
    55.26825  2932.33039   0.
    22.03247  2936.46128   0.
    16.10828  2937.24515   0.
    22.48452  2941.40733   0.
    20.86327  2946.43955   0.
    29.71126  2937.35408   0.
    32.14062  2935.59882   0.
    45.26358  2935.44707   0.
    29.19256  2942.39482   0.
    25.22337  2944.48902   0.
    25.77440  2940.40763   0.
     5.12787  2951.33100   0.
     9.72036  2943.07255   0.
     0.63027  2944.64860   0.
     5.15669  2954.13690   0.
    33.80274  2940.56791   0.
     1.57076  2956.41210   0.
     9.31000  2947.97928   0.
     9.87726  2933.53233   0.
    53.60824  2932.85261   0.
    40.63972  2936.89193   0.
    13.47285  2946.23828   0.
    37.68088  2934.75035   0.
    46.32767  2931.88185   0.
    18.64740  2941.16071   0.
    13.09413  2950.32980   0.
    18.01744  2935.92389   0.
     0.55332  2948.73049   0.
     5.35766  2947.55011   0.
    42.44669  2933.52960   0.
    57.75733  2932.24094   0.
    23.68300  2931.83870   0.
    19.94397  2947.74183   0.
    61.81887  2931.15328   0.
[...]
POINT_DATA      1414
CELL_DATA      2568
SCALARS Resistivity(ohm.m) double 1
LOOKUP_TABLE default
          1156.20130          1743.52578          2305.18063          1114.83016           512.40190          2150.89803          1381.54113          1586.60796          1690.19011          2039.09357           729.32430          2043.26272           596.53087          2286.11724          2259.80898          1954.99186          1598.53202           444.85745           488.04889          2349.05758          1274.06790          1943.01309          1283.78989           604.75140          1859.11312           513.64340           273.00723          2107.16388          2220.72990          2253.76668           504.58340           510.67537          1672.10081           388.73393           407.49888          1734.87357           688.83017           944.46607          1239.06349          1622.58901          1859.18083           649.69562           509.74676          2316.46163           374.87373           405.85871          3038.92561           781.39763           607.28607           907.43314          2590.37480          1865.92911           982.83465          1605.26547          2307.96287           915.04136           409.34154          2185.18691           424.29551          1065.23366           528.07233          2111.55894           442.06093          1907.91250           285.88548          1596.58969          2038.87195          1981.11159           322.48612           774.61611           493.77875           737.09382          2065.81397           453.99205           326.59989          2901.62705          1442.46861           446.98024           317.44575          2833.26125          2656.95694          1518.90610           415.17058           422.61150          2033.69962           837.60244           379.49293          2121.78754           827.73983          1874.54997          1046.27121           403.02673          2178.65159           368.18566          1809.85857          2006.56610           562.47315          1215.93134          2170.49940           999.53328          1561.50494           533.67451           630.84867           673.34254          1000.67390          1726.46162           504.36464           903.47174          2176.85411          1310.03600           397.71818          1148.18356          2510.77235          1803.32863          2050.00538          1329.58537          1039.53897          1529.64951           487.25444           357.94517          2265.76665          1407.32063          3045.29169           705.53034           534.22195          2004.03490          2405.78595          3269.38409          1849.49009          1514.38774          1996.43300          1108.19794          1244.64283          2219.54362           783.31329          2788.90900           390.38537          1690.51631          1013.04175          1384.95672          1609.25218           511.25809           620.77277          1423.76872          1666.06463           560.72023           460.12365          1486.99915          1918.41080           541.45341          2283.38263          1925.88871           892.23425           650.67581          2214.20426           293.20451          1682.03748           392.71411          2224.98152          1294.22033          1159.32900           515.23484          2325.39626           467.07439          2141.38541           543.38277          1531.28148          1881.34273          1950.38476          1734.60708           669.65826           731.35038           689.15063           299.21367           414.40920           886.53208           841.88233          3413.83704          2624.04522          1113.85840          2168.90213          1463.30445          1943.22477           721.16106           530.42147           977.68780           892.21412           665.73459           813.90473          2468.03441          1225.88938          2392.39887           638.37751          2663.11874           295.70772           544.78435          2581.91461          2013.58265          1236.77704           446.72601           281.85602           769.53002          1809.60523          1460.44597          1872.02346          1051.57500          3656.45985          2313.82941           423.30271          2220.58622          1325.92676           589.00699           437.62005           378.78840           573.89244          1193.69443          2332.51058           481.31490          1244.44522           535.54704           827.58966          1332.38224          1092.98347           383.13824           607.44677           693.11608           374.29890           591.81807          1308.24548           343.87827          1028.78328          2078.37301          1422.13276          2875.13259          2306.43231          1715.68233          2365.01240          1468.44920          1409.08494          1378.20051          2588.42767           615.77332           978.49752           461.52477          2432.94337           278.25670          1840.33852           483.76966           446.26314          2084.81225           265.60710          2067.63648          1759.10189           713.14392          1951.32723           939.23558           625.17685           740.46678           660.97320          2812.72208           572.12251          2152.14958           493.40174           486.48815           437.25047          1673.14952           405.56629          2220.06780           930.46901          2349.71045           957.79394          2119.08661          2408.94348          2115.80317           445.39819          1623.74285          2228.22887           426.59111           656.57000           623.77634           429.56041          1405.24662           299.41945           907.89911           859.13812          2293.66514           503.63749          2358.00513           590.87418           469.46301           892.63137           330.12831          2245.72191           710.63098          1910.39364          2199.09662          1445.23250           536.56432           498.47947           670.33443           999.92322           447.27697          2460.49193          2525.41246           397.27205          1843.75784          1325.33913          1538.21398          1968.05816           385.67566           731.01852           573.29910           324.20880          2222.21687           723.15995           366.24981           489.34098          1150.49545          2704.59869           465.12472          3176.97616           387.34061           927.49844           442.05864           563.89308          1212.36848           456.89913          1414.02948          1058.87008          2853.25427          1761.16524          2074.93010           562.64999          1604.97926           359.83998           402.44927           622.04826           576.44778          3105.29354           557.40809          2092.13830           421.97406          2034.58594           464.37056           572.63925          1817.23500          1187.02414          1070.14001           444.71181          2086.89322           457.67562          2437.53120           797.43305           396.90532           486.39361          2027.03206           496.29839          1601.98281           349.12326           424.09255           767.17464          1539.14455           845.42455           578.28883          1364.81709           550.49968           389.65240          2285.22504          1791.24693          2606.44526           423.17547          1317.23916          1420.38024           982.99347           317.03595          2645.95223           396.88110           456.14009           424.21957          1991.61179          1372.38222           434.16225          1808.42393          2342.83978           262.88347          1359.96035           551.55391          1374.57191           454.40878          1534.29533           754.17879           360.48934          1446.52206          1462.29685           433.91405           749.57748           626.13425          1408.16321          1744.91412           979.12354           553.85251           680.44834          1356.54757          1469.01983          1322.49442           858.18764           528.72354           943.56243          2183.31987          1658.04533          1520.90659          2137.61385           973.41988           626.83616          1158.50391          2445.08050           639.83536           859.85448           651.35840          1761.35004           935.15210           400.57082          2118.83293          1439.06237          1288.34494           307.46357          1710.63966           551.28065          1412.99096           497.43444          1340.22258           480.78113           432.99905          1961.89405          1018.27497          1480.19876          1514.21698           611.99335          1911.42868          1360.62128          3461.15182           592.63314          1189.38834          2094.07334          1158.15697          1068.16801          1303.91738          1220.91474          3920.03025           852.43826          3268.91909          1577.57307          1560.05387          1247.94724          1759.06532           798.07842          2150.94719           928.71921          1376.91336           429.21159          1862.99891          1341.69278           891.94650          1362.14359          2091.22247           807.61179           805.28059          1186.97815          1784.54509          1673.78728           775.85343          1800.43550           848.91982           307.56472          1881.62245          3658.73768          1025.78174           409.65502          1550.26692           680.14562          1077.34649          1983.63917           535.73002           558.92238          2063.88080          2805.42513          1274.77147           375.92017           651.78130           745.58011          1294.70714          1131.54978          1080.88689          1538.88977           803.77710          1486.87261           762.56243          1052.10271          2509.46377          1796.36977           626.96034           343.55150           569.04600          1283.08779           762.43976          1224.83381          3452.14055          1272.98503           387.20168           502.76562          1280.59156          1209.93575           838.63423           447.39497          3058.57970          1417.41507           403.29695          3160.98354          2188.69763           407.59023          1410.46468          1262.02354          1083.27590          1188.36773          1079.60931           597.92235          1650.45170          1458.86550          1479.21803          1338.73577           709.28303          1794.71887           437.47605          1247.88763           633.92318           419.93353           720.11549          1721.38680          1110.85680           947.66769           429.49198           437.66966          1701.58181          1157.72725          4125.60641          4204.26756          3612.43463          2293.11539          2085.06681          2187.94103          3439.56809          4716.82822           711.98668          4587.54470           484.74783          1099.48329          1479.52142           694.67429          3473.83098          5107.40542          1405.64090           442.73918          2190.75172          2853.43733           769.79008           873.04208          1440.41026          4375.20795          1598.44603          2256.45201           961.50219           662.07442          1409.44500          1473.32256           512.07826          3738.65637           491.71682          1477.21913          5265.51585          4173.32341          1812.75877          4654.53577           266.87334           803.96463           462.03896          2106.15427          2798.00710          1879.29387          3130.68920          1877.92548          2555.41430           721.32620          1648.12883          1397.33485          1796.74589          8815.43947          3663.73158           938.12686          4624.42658          3986.21253           820.05135           647.31288          5098.78319          2722.99100          4402.22397          4572.13633          1402.49344           907.07329           606.76209           583.48593           827.79324          4347.90427          1704.63907          1028.34487          1615.31012           297.20737          1069.74429          1803.47366          3687.26092          1188.47696           946.14110           705.19389           896.66156          1752.05227          1472.25685           953.48558          3586.23146          2687.73343          3514.94666          3815.33400          5481.62427          4274.92478          2698.29621           589.64692          4478.53488          1333.13315          1713.83480           622.04065          1350.75346           892.12175           375.30470          5548.81211          5430.48901          1542.09498          1605.27138          2965.74893          2489.54973          3021.43156          2844.48173           940.67209          1568.14938           638.00794           845.04844           400.53338           509.38304           747.33719           652.08143          2122.79608          4455.57955          3746.00685          1579.51658          2334.36417          1402.27372          1802.45586          8095.23726          4793.75300          2067.50512           415.47073           574.29189          5262.43557           655.62568          3776.40250          4289.98488          1045.67907          2481.09903           737.06175           904.92548          1057.60875          2533.55565          2554.58549          2654.24812           663.71644           530.90749          1160.35880           352.96550           616.28123           450.72544          3836.69145          5296.30682           520.31523          3115.68582           886.02134          2483.97827          1244.40484           692.57005           649.24331           726.36218           710.22341          1965.94414           780.48850          1653.05921           693.15483          2342.55513          1755.94788          4454.74135          2541.14104           796.07046           602.99221           303.13468          3472.40528           770.79664           781.96187          1436.23183          2893.38549           704.19373           798.90724           569.13914          1404.29041          1268.93918          1707.05735          1448.14652           673.96349           739.41538           669.42998          2648.82432          1873.20730          1316.40280          8018.51535          1048.79548          1011.46626           984.91174          1943.60271          2522.90201          1581.65635          1563.78455          1988.29074          2516.98411           592.22346          7424.77474          1610.30038          2799.76173           912.57103          1168.13507          4337.09829          2865.93698           754.91317          1227.06096          3621.54604           533.83678           532.62525          1317.49968          2623.32617          5371.67735          1491.92315          6894.03631          1414.05668          1899.35497          1542.63363          1208.98120           451.94933           746.47154          3029.96085           672.61243          4071.47912           654.04769          3375.57676           910.19337           889.31860          1595.18485          2049.24894          3369.33712          5020.92124          2650.33061          1517.86564          1787.61672          1322.88410          5366.53117          7266.20173          1905.68294          1046.30310          3107.14814           689.56338          1133.28271           822.23943          2813.79622          1152.44675          1027.92592           546.03958           662.27353          3715.35406          1136.41657           742.55987          5772.71866          4043.24901          2186.97433          1432.14041          6961.59639           812.76738          2975.97598          3182.54962          2220.71149          1269.89881          2960.37770          5228.36027          1924.87579           473.94293           694.39138           914.72597          1997.21543          1749.88105           748.91576           717.92899          6162.96607           817.76611          1238.32566          1890.52932          3964.76522          5273.57647           512.65273          1370.10817           859.73107          1090.06984          1950.38801           767.87857           905.62180          1367.68160           764.53229           629.51806           421.70662           827.85313          3234.68109           462.79257          3148.22626          1806.34747          2122.76133          1511.55389          1996.23400          1545.63854           424.70943          4729.31307          1679.92674          1842.12026          2135.16069          2327.59626          5666.39555          1018.07984          5090.22908           547.29423           661.19255          1684.79857          1170.85848          7435.04412          2658.81534           947.70656          1636.91120          4164.06831          3492.93191           622.84536          4983.18540          1472.41777          2773.62615          1063.97780          3425.86333          3894.09700           495.72060          3323.53911          3983.06886          2786.43194          5792.83628           812.99146           738.95765          1162.24058          2408.05235           512.74565          9217.42054          3845.26310           625.27161          1859.90284          1967.21396          2084.39112           773.70620          1143.07864         13674.46809           689.07472          2475.27193          1320.70756           511.10335           792.09360          2582.99228          5107.33404          6141.23426          1794.62972          2144.57295          2420.67114          4297.60418           707.55147          1546.36356          2363.17934          1799.93978          5419.32961           659.12819          1157.50932          2740.84944           841.49107          3645.01109          2788.29427          6534.13059          3251.71261          1379.93383          1124.17283           659.22108          5557.77878          7099.27867          2243.38223           281.00463           372.92223           878.45963           808.95708          6081.20339          1397.48603          1992.91977          3697.86612          2348.25992          5984.53150          5860.62324           382.69312           560.46257           791.27956          1268.53896           645.11167          4067.32452          4022.49036          1503.86921           745.16141          1033.34884          2387.84630          3711.46050          2588.29912          2111.44324           985.75259          3848.54675          7481.97542           500.05472           616.48930          1643.62806          7638.18750          2226.75090          2935.38999          4489.05981           816.26350          1914.34949          4343.27302           541.23082          1533.42392          1043.88235          6395.28217           995.13834          1718.76990          3080.99623          5208.48057          5080.64776          5714.72246          4710.76878          4191.63228          1740.21310           893.04455          3419.80031         10460.03311           667.64889          2506.69789          3146.21566           284.44598          2355.73739          3970.75792          2688.58681           483.17649          4745.43828           767.33714          3517.37884          3923.47146          1938.60154           746.24115          2934.55701          3628.65739          5288.12412          5905.42365          5130.06558           646.08384           693.17100          1418.76507          4855.31602          1206.65259          2758.83261           992.75844           637.915