# vtk DataFile Version 3.0
Output from R2
ASCII
DATASET UNSTRUCTURED_GRID
POINTS       1414 double
     0.00000  2968.10000   0.
     1.54000  2966.60000   0.
     3.08000  2964.90000   0.
     4.61000  2964.10000   0.
     6.15000  2963.30000   0.
     7.69000  2962.60000   0.
     9.23000  2961.50000   0.
    10.76000  2960.70000   0.
    12.30000  2960.00000   0.
    13.84000  2959.30000   0.
    15.38000  2958.70000   0.
    16.91000  2958.10000   0.
    18.45000  2957.30000   0.
    19.99000  2956.60000   0.
    21.52000  2955.80000   0.
    23.06000  2955.00000   0.
    24.60000  2954.30000   0.
    26.14000  2953.50000   0.
    27.68000  2952.80000   0.
    29.21000  2951.90000   0.
    30.75000  2951.10000   0.
    32.29000  2950.20000   0.
    33.83000  2949.50000   0.
    35.36000  2948.70000   0.
    36.90000  2948.10000   0.
    38.44000  2947.30000   0.
    39.98000  2946.70000   0.
    41.51000  2946.10000   0.
    43.05000  2945.50000   0.
    44.59000  2945.10000   0.
    46.13000  2944.50000   0.
    47.66000  2944.10000   0.
    49.20000  2943.60000   0.
    50.74000  2943.40000   0.
    52.28000  2943.00000   0.
    53.81000  2942.50000   0.
    55.35000  2942.10000   0.
    56.89000  2941.60000   0.
    58.43000  2941.00000   0.
    59.96000  2940.60000   0.
    61.50000  2940.10000   0.
    63.04000  2939.50000   0.
    64.58000  2939.10000   0.
    66.11000  2939.20000   0.
    67.65000  2939.20000   0.
    69.19000  2939.10000   0.
    70.73000  2938.90000   0.
    72.26000  2938.60000   0.
    73.80000  2938.30000   0.
    75.34000  2938.50000   0.
    76.88000  2938.70000   0.
    78.41000  2938.60000   0.
    79.95000  2938.80000   0.
    81.49000  2938.90000   0.
    83.03000  2939.10000   0.
    84.56000  2939.10000   0.
     3.42000  2957.55000   0.
     8.97000  2954.51000   0.
    14.52000  2951.86000   0.
    20.07000  2949.38000   0.
    25.63000  2946.59000   0.
    31.18000  2943.67000   0.
    36.73000  2940.99000   0.
    42.28000  2938.62000   0.
    47.83000  2936.87000   0.
    53.39000  2935.46000   0.
    58.94000  2933.69000   0.
    64.49000  2931.95000   0.
    70.04000  2931.81000   0.
    75.60000  2931.36000   0.
    81.15000  2931.70000   0.
     0.51333  2967.60000   0.
     1.02667  2967.10000   0.
     2.05333  2966.03333   0.
     2.56667  2965.46667   0.
     3.59000  2964.63333   0.
     4.10000  2964.36667   0.
     5.12333  2963.83333   0.
     5.63667  2963.56667   0.
     6.66333  2963.06667   0.
     7.17667  2962.83333   0.
     8.20333  2962.23333   0.
     8.71667  2961.86667   0.
     9.74000  2961.23333   0.
    10.25000  2960.96667   0.
    11.27333  2960.46667   0.
    11.78667  2960.23333   0.
    12.81333  2959.76667   0.
    13.32667  2959.53333   0.
    14.35333  2959.10000   0.
    14.86667  2958.90000   0.
    15.89000  2958.50000   0.
    16.40000  2958.30000   0.
    17.42333  2957.83333   0.
    17.93667  2957.56667   0.
    18.96333  2957.06667   0.
    19.47667  2956.83333   0.
    20.50000  2956.33333   0.
    21.01000  2956.06667   0.
    22.03333  2955.53333   0.
    22.54667  2955.26667   0.
    23.57333  2954.76667   0.
    24.08667  2954.53333   0.
    25.11333  2954.03333   0.
    25.62667  2953.76667   0.
    26.65333  2953.26667   0.
    27.16667  2953.03333   0.
    28.19000  2952.50000   0.
    28.70000  2952.20000   0.
    29.72333  2951.63333   0.
    30.23667  2951.36667   0.
    31.26333  2950.80000   0.
    31.77667  2950.50000   0.
    32.80333  2949.96667   0.
    33.31667  2949.73333   0.
    34.34000  2949.23333   0.
    34.85000  2948.96667   0.
    35.87333  2948.50000   0.
    36.38667  2948.30000   0.
    37.41333  2947.83333   0.
    37.92667  2947.56667   0.
    38.95333  2947.10000   0.
    39.46667  2946.90000   0.
    40.49000  2946.50000   0.
    41.00000  2946.30000   0.
    42.02333  2945.90000   0.
    42.53667  2945.70000   0.
    43.56333  2945.36667   0.
    44.07667  2945.23333   0.
    45.10333  2944.90000   0.
    45.61667  2944.70000   0.
    46.64000  2944.36667   0.
    47.15000  2944.23333   0.
    48.17333  2943.93333   0.
    48.68667  2943.76667   0.
    49.71333  2943.53333   0.
    50.22667  2943.46667   0.
    51.25333  2943.26667   0.
    51.76667  2943.13333   0.
    52.79000  2942.83333   0.
    53.30000  2942.66667   0.
    54.32333  2942.36667   0.
    54.83667  2942.23333   0.
    55.86333  2941.93333   0.
    56.37667  2941.76667   0.
    57.40333  2941.40000   0.
    57.91667  2941.20000   0.
    58.94000  2940.86667   0.
    59.45000  2940.73333   0.
    60.47333  2940.43333   0.
    60.98667  2940.26667   0.
    62.01333  2939.90000   0.
    62.52667  2939.70000   0.
    63.55333  2939.36667   0.
    64.06667  2939.23333   0.
    65.34500  2939.15000   0.
    66.88000  2939.20000   0.
    68.42000  2939.15000   0.
    69.70333  2939.03333   0.
    70.21667  2938.96667   0.
    71.24000  2938.80000   0.
    71.75000  2938.70000   0.
    72.77333  2938.50000   0.
    73.28667  2938.40000   0.
    74.31333  2938.36667   0.
    74.82667  2938.43333   0.
    75.85333  2938.56667   0.
    76.36667  2938.63333   0.
    77.64500  2938.65000   0.
    78.92333  2938.66667   0.
    79.43667  2938.73333   0.
    80.72000  2938.85000   0.
    82.00333  2938.96667   0.
    82.51667  2939.03333   0.
    83.79500  2939.10000   0.
     0.08400  2959.57200   0.
     1.19600  2958.89800   0.
     2.30800  2958.22400   0.
     4.53000  2956.94200   0.
     5.64000  2956.33400   0.
     6.75000  2955.72600   0.
     7.86000  2955.11800   0.
    10.35750  2953.84750   0.
    11.74500  2953.18500   0.
    13.13250  2952.52250   0.
    15.90750  2951.24000   0.
    17.29500  2950.62000   0.
    18.68250  2950.00000   0.
    21.18200  2948.82200   0.
    22.29400  2948.26400   0.
    23.40600  2947.70600   0.
    24.51800  2947.14800   0.
    26.74000  2946.00600   0.
    27.85000  2945.42200   0.
    28.96000  2944.83800   0.
    30.07000  2944.25400   0.
    32.56750  2943.00000   0.
    33.95500  2942.33000   0.
    35.34250  2941.66000   0.
    38.11750  2940.39750   0.
    39.50500  2939.80500   0.
    40.89250  2939.21250   0.
    43.66750  2938.18250   0.
    45.05500  2937.74500   0.
    46.44250  2937.30750   0.
    49.22000  2936.51750   0.
    50.61000  2936.16500   0.
    52.00000  2935.81250   0.
    54.77750  2935.01750   0.
    56.16500  2934.57500   0.
    57.55250  2934.13250   0.
    60.32750  2933.25500   0.
    61.71500  2932.82000   0.
    63.10250  2932.38500   0.
    65.87750  2931.91500   0.
    67.26500  2931.88000   0.
    68.65250  2931.84500   0.
    71.43000  2931.69750   0.
    72.82000  2931.58500   0.
    74.21000  2931.47250   0.
    76.98750  2931.44500   0.
    78.37500  2931.53000   0.
    79.76250  2931.61500   0.
    82.53750  2931.75500   0.
    83.92500  2931.81000   0.
     6.60134  2937.05984   0.
    20.80435  2932.52560   0.
     3.78758  2946.36592   0.
    15.48523  2940.98228   0.
    29.30091  2934.50364   0.
    23.90594  2939.46561   0.
    40.87322  2931.62711   0.
     1.03219  2951.87344   0.
    10.83406  2946.32292   0.
    20.42668  2943.42459   0.
    48.80952  2930.83467   0.
    35.50309  2935.49258   0.
     7.54365  2949.73854   0.
    28.57967  2939.84283   0.
    15.90963  2945.83181   0.
    44.30452  2933.27820   0.
    -0.12722  2955.42655   0.
    24.47411  2943.04615   0.
     4.45051  2952.86019   0.
    40.01017  2935.22543   0.
    52.75593  2931.58993   0.
    13.75183  2934.27842   0.
    32.31862  2938.44653   0.
     0.40990  2931.04902   0.
    19.20708  2946.27332   0.
    57.19103  2930.55709   0.
    -0.97178  2947.27328   0.
    19.39705  2939.49643   0.
    11.08068  2950.12444   0.
    32.86215  2930.47012   0.
     7.41320  2941.82707   0.
    13.76382  2948.77946   0.
    27.17579  2942.79365   0.
     7.27112  2952.68663   0.
     2.71547  2954.94653   0.
    22.91159  2945.17994   0.
     2.00816  2941.86911   0.
    24.73355  2934.79062   0.
    47.86753  2934.00196   0.
    50.62083  2933.29089   0.
    60.15732  2930.28185   0.
    37.65425  2937.53830   0.
    44.64836  2929.77041   0.
    10.93416  2939.02064   0.
     4.26476  2949.76242   0.
    36.78915  2931.78219   0.
     7.36345  2946.13476   0.
    30.92470  2941.06806   0.
     6.19921  2931.10091   0.
    35.16618  2938.51604   0.
    16.36294  2929.87801   0.
    13.43632  2943.77014   0.
    42.64967  2935.50406   0.
    26.89596  2931.23775   0.
     1.59760  2936.73753   0.
    17.19200  2948.13905   0.
    -0.61497  2957.60981   0.
    26.49360  2937.36117   0.
     9.56799  2951.50953   0.
    17.55858  2943.77119   0.
    55.26825  2932.33039   0.
    22.03247  2936.46128   0.
    16.10828  2937.24515   0.
    22.48452  2941.40733   0.
    20.86327  2946.43955   0.
    29.71126  2937.35408   0.
    32.14062  2935.59882   0.
    45.26358  2935.44707   0.
    29.19256  2942.39482   0.
    25.22337  2944.48902   0.
    25.77440  2940.40763   0.
     5.12787  2951.33100   0.
     9.72036  2943.07255   0.
     0.63027  2944.64860   0.
     5.15669  2954.13690   0.
    33.80274  2940.56791   0.
     1.57076  2956.41210   0.
     9.31000  2947.97928   0.
     9.87726  2933.53233   0.
    53.60824  2932.85261   0.
    40.63972  2936.89193   0.
    13.47285  2946.23828   0.
    37.68088  2934.75035   0.
    46.32767  2931.88185   0.
    18.64740  2941.16071   0.
    13.09413  2950.32980   0.
    18.01744  2935.92389   0.
     0.55332  2948.73049   0.
     5.35766  2947.55011   0.
    42.44669  2933.52960   0.
    57.75733  2932.24094   0.
    23.68300  2931.83870   0.
    19.94397  2947.74183   0.
    61.81887  2931.15328   0.
[...]
POINT_DATA      1414
CELL_DATA      2568
SCALARS Resistivity(ohm.m) double 1
LOOKUP_TABLE default
          1134.04447          1795.76815          2391.33295          1092.45584           533.01942          2271.65397          1284.22140          1494.29260          1701.14961          2153.25720           731.41655          2127.00886           605.56772          2288.98179          2251.88689          1966.90837          1625.63656           457.50614           473.70059          2369.59243          1183.90072          1982.76379          1285.39440           613.48313          1905.29262           495.11223           277.32161          2234.70285          2191.08606          2375.81029           494.74887           498.55279          1712.16560           398.45202           399.88137          1719.44059           703.34226           922.46100          1238.87731          1584.86677          1860.48531           662.20660           478.58262          2281.79829           359.46297           414.06917          2954.92540           777.38205           618.75525           874.64528          2587.35810          1895.64827           950.83741          1627.78290          2378.76555           892.34242           392.46128          2321.30491           423.97046          1027.26669           547.23092          2137.30451           454.59540          1915.80117           286.51688          1610.54376          2149.51223          2090.28390           314.87759           736.91369           479.46675           739.00177          2065.14141           432.58014           333.84418          2836.69314          1433.81185           457.79167           335.83527          2773.98993          2632.18332          1419.20440           412.91510           425.18676          2067.17839           801.10390           364.65510          2100.94849           809.15694          1954.22303          1019.64747           383.83005          2300.87478           377.01255          1841.74839          2023.58281           570.07868          1169.93897          2173.36750           974.67673          1580.27412           544.40502           628.12239           683.19290           979.45151          1740.17533           518.33792           883.19060          2242.83648          1260.58516           405.40828          1064.60729          2458.06065          1853.24998          2041.48290          1344.48944           973.96313          1553.59335           459.94476           346.47230          2316.89017          1404.31887          2963.02875           706.31555           540.36473          2097.58323          2359.70057          3184.77834          1874.99092          1418.19848          2115.71162          1088.14672          1250.85681          2247.84855           779.61824          2729.20685           398.98253          1711.55918           987.04691          1401.16335          1641.65448           520.58097           613.34748          1319.46971          1700.96086           565.91857           450.03607          1500.90103          1978.86383           526.54146          2402.65869          1944.82108           875.51345           666.09728          2284.31951           301.78442          1612.62501           404.82399          2199.63598          1303.76146          1109.79081           515.91782          2285.73064           467.20043          2286.09773           561.71316          1453.85307          1870.27606          1944.92831          1771.24161           680.44697           732.96825           681.63619           295.79322           405.78378           854.31064           810.23211          3376.09901          2567.03830          1080.08070          2260.40284          1373.98086          2042.36746           715.13888           546.76416           950.78612           861.36464           648.14739           797.41796          2435.61788          1228.38227          2380.92984           604.37292          2618.75436           293.06701           515.87495          2557.34960          2138.31584          1218.45799           425.65669           295.10118           761.64070          1839.41545          1479.67372          1850.81103          1026.53415          3644.81790          2409.82157           404.21412          2350.17195          1332.59263           594.13364           421.51795           367.85841           575.13036          1175.78073          2304.63845           473.72322          1220.32101           522.70195           807.01453          1291.13251          1063.05781           375.96341           619.59367           656.06592           390.59243           558.01681          1323.31555           344.06340           969.59416          2127.98639          1427.30526          2822.62413          2351.50815          1665.35538          2394.42238          1391.70260          1369.01003          1382.38455          2542.76144           629.47843           949.94488           436.47763          2428.87310           283.77549          1915.11143           486.52428           456.58718          2218.68883           273.09795          2117.76104          1740.16625           683.62099          2042.59570           918.99254           636.24691           714.78783           668.56154          2762.22349           583.23068          2292.72731           500.15625           457.29685           432.33928          1636.77125           391.89227          2316.13453           899.41360          2437.96807           913.33898          2206.10924          2362.38934          2226.93203           445.18748          1654.88588          2338.00027           437.73891           673.43148           638.44263           444.31771          1421.43203           300.03042           890.16197           840.08111          2367.28359           477.33945          2387.53536           605.33561           481.88977           857.09653           330.79324          2285.56007           671.47216          1986.52139          2282.64013          1420.21405           531.98483           469.59831           644.36559           944.38041           436.12075          2476.39875          2474.79382           409.41473          1858.03407          1335.35648          1563.00140          1966.32844           397.53778           695.21985           585.37428           316.19413          2303.71189           724.36169           363.65734           500.63791          1074.16369          2652.57077           458.00413          3128.38422           389.46039           906.73751           458.84163           541.86569          1207.93557           452.02781          1430.66216          1034.91681          2783.39566          1818.03398          2211.22404           527.75822          1569.27432           357.41487           394.46564           594.12773           588.31616          3044.17211           550.13362          2157.74739           431.10689          2159.62705           473.45201           570.36081          1840.89863          1148.64892          1047.69760           442.07830          2190.40845           466.40946          2399.61557           770.36695           400.30005           464.72289          2100.14817           494.26248          1585.63141           338.16620           403.06465           759.94579          1558.15078           831.28577           543.55803          1378.04604           519.15485           389.03268          2327.13085          1797.82348          2552.11110           438.32635          1329.53145          1434.43222           928.42210           315.38361          2589.38029           395.99704           459.54812           435.32930          2048.19385          1380.92655           445.09377          1817.95512          2365.67941           275.09202          1373.99196           567.02541          1303.98393           437.81812          1483.73877           715.08204           350.94307          1464.49467          1377.58490           444.61605           747.30824           589.05763          1304.30782          1772.11048           942.27098           569.57761           641.17526          1350.89495          1485.73778          1310.03804           838.68014           509.36614           917.40307          2281.28860          1675.08545          1504.87944          2178.20555           931.89087           629.76317          1076.81579          2462.27803           656.71400           839.12749           662.63442          1774.71589           902.74155           386.84708          2198.70968          1388.69576          1262.65170           303.37873          1645.91397           567.60137          1428.66034           504.30246          1321.21491           488.76782           442.48629          2004.37689           991.15131          1498.01535          1509.15480           625.48255          1921.67082          1255.34730          3410.86737           601.61262          1176.64242          2158.12406          1145.64882          1034.86122          1317.21280          1212.45042          3938.10586           829.13128          3202.26726          1587.69963          1470.00273          1152.15336          1704.36994           789.55133          2142.42611           900.77401          1319.09228           441.21052          1936.39782          1340.51196           864.52607          1270.54654          2234.06964           794.36855           792.96358          1113.42374          1750.91517          1678.09077           772.62224          1858.61016           836.92853           307.52208          1965.04851          3656.97141           979.59913           411.88881          1488.74148           687.70133          1011.37471          2009.94662           511.43730           562.93993          2200.67346          2759.64586          1194.56381           380.88426           670.82202           743.79800          1292.12281          1070.85159          1059.38576          1555.57846           781.71118          1503.75084           746.52607          1024.31231          2458.77875          1843.80968           640.91008           347.63513           583.84291          1249.19810           750.97244          1191.39643          3439.86994          1260.00797           373.05635           482.36007          1208.81383          1181.91926           828.41863           422.59056          3013.46855          1434.32275           384.93605          3129.17362          2253.66179           421.54776          1392.70879          1254.11724          1058.58148          1127.41152          1053.25433           561.53885          1598.82669          1476.08919          1497.32812          1240.78789           689.78005          1772.49757           452.85034          1155.82073           595.99025           433.66545           705.84967          1757.83478          1083.26891           918.26393           444.82757           414.21296          1743.66679          1131.67367          4218.33879          4263.29107          3646.88198          2203.18055          2081.97737          2173.15009          3489.65211          4995.56218           672.22755          4663.16679           481.95732          1106.97187          1460.05238           696.10228          3519.70169          5028.64082          1375.06239           439.51160          2062.14812          2875.69617           795.58503           883.37875          1505.94475          4387.17136          1562.31738          2349.66583           966.21777           649.57038          1433.47988          1584.70975           471.77575          3598.60070           495.31659          1459.73610          5333.79613          4161.94513          1831.18980          4800.94871           289.74067           849.48681           464.64035          2021.64937          2783.41549          1853.86483          3116.53245          1832.89359          2648.96780           747.35115          1587.86288          1327.80890          1856.39914          8624.86104          3706.23675           994.52016          4676.49213          3901.16462           847.53191           650.55368          5050.89025          2788.26457          4443.14753          4770.57534          1476.47115           879.06657           616.54000           564.74617           806.66018          4342.64460          1686.18250          1025.47796          1663.00575           324.64494          1072.52459          1880.79066          3714.32763          1167.06940           920.75146           723.58887           882.98692          1687.97130          1489.76421           941.18723          3554.23892          2798.16801          3394.74555          3705.66495          5630.79228          4197.86347          2741.70939           575.03509          4651.01711          1256.59766          1697.25366           633.35490          1443.74008           915.77954           388.63861          5785.57042          5412.95265          1586.31693          1600.87189          2950.48250          2409.50919          3173.55397          2950.18307           922.03226          1471.15644           635.62749           820.69215           404.69487           510.66135           770.90501           653.86924          2044.82591          4320.35169          3656.85314          1550.66077          2347.74621          1478.04011          1731.58963          8143.98149          4856.33998          2009.31912           417.18269           575.28524          5175.22794           670.15352          3970.37201          4383.66880          1048.87254          2504.71701           755.59088           907.08919          1066.33075          2452.66916          2526.19037          2635.39303           675.14533           518.52320          1174.37128           369.63463           629.46333           440.58830          3789.58049          5390.26070           479.99701          3046.84078           881.38217          2602.62003          1291.79907           683.44104           665.10892           709.96584           685.34760          1988.00998           798.25898          1586.98237           716.20747          2453.05574          1862.01629          4299.41457          2686.90998           751.53410           608.31870           327.88817          3389.63361           769.62334           806.71380          1397.05109          2696.38703           689.36924           825.39014           571.16623          1358.05820          1261.72942          1665.02841          1397.87691           663.89315           776.37344           692.44799          2693.44570          1970.38369          1279.96306          7868.60875          1057.30339           949.55309           984.49034          1818.66768          2572.60445          1574.40647          1601.57204          1814.53905          2704.85245           606.20492          7659.72898          1571.43918          2807.21264           871.12820          1177.63284          4331.55892          2857.57454           763.09234          1183.28239          3601.08192           503.37882           535.90046          1326.54737          2748.90564          5446.92559          1541.59419          6987.39755          1357.99604          1832.13625          1583.73846          1250.34138           463.90474           771.21326          3010.01462           694.60242          4234.18370           666.94253          3440.48621           863.15530           818.69646          1514.26989          2140.62670          3269.89259          4928.39798          2705.82878          1590.40096          1819.72014          1337.44488          5534.21410          7358.66995          2008.41295          1003.55121          2876.74354           671.96905          1148.66260           843.21157          2879.59789          1174.80885          1050.01403           554.85980           655.38569          3765.62414          1076.39215           773.76093          5958.38872          4025.86477          2323.07020          1410.19862          7141.85287           827.14632          2779.33162          3165.33509          2253.90793          1197.94129          3098.73879          5305.00617          1911.71493           450.12057           715.31765           933.60195          1946.98715          1778.33041           716.00385           708.50850          6207.49318           820.57505          1188.64324          1948.25903          4023.25412          5208.14901           497.23273          1429.24203           839.67014          1141.68714          1971.50229           744.37808           894.19712          1429.65546           796.33714           634.07142           422.55749           797.31022          3153.73403           470.30168          3066.11499          1833.99984          2069.51077          1486.99618          1896.02495          1619.35769           424.82754          4461.24729          1662.81610          1938.62813          2094.20569          2268.34111          5548.88198          1037.65740          5191.26094           565.72879           676.85132          1651.08308          1202.09121          7518.63490          2655.48144           924.17472          1666.08493          4120.39610          3522.86311           632.45891          5115.04671          1500.13104          2761.52665          1085.61628          3437.30051          3805.08287           497.97033          3389.63847          3859.01473          2734.95655          5643.05258           829.54551           748.19294          1192.10049          2457.07734           476.10580          9217.42625          3742.93307           655.29566          1769.38744          1889.96214          2104.72244           779.53872          1156.18412         13359.01433           682.64414          2393.24260          1353.59827           493.41432           788.20637          2553.04263          5194.99488          6019.34936          1761.61808          2210.61482          2557.69227          4336.51966           720.81765          1486.86568          2267.06561          1821.32098          5380.59894           657.62427          1183.58273          2800.41015           820.29782          3939.83259          2628.13423          6645.07480          2895.86077          1315.86662          1172.45022           649.37106          5408.01013          7191.14021          2044.77307           291.63603           383.18185           845.09834           801.68270          6176.73379          1458.59384          2135.93169          3590.59490          2386.47934          5841.63089          5756.51188           387.85619           588.57519           769.72643          1191.95829           655.66875          4140.59376          3985.20132          1482.43355           727.69952          1023.31757          2299.19119          3754.58915          2457.62641          2114.32707           931.65049          4115.71746          7641.71529           477.00946           641.58508          1764.09232          7620.47924          2056.12831          2931.06868          4607.01629           792.76486          1875.72587          4417.54761           531.18534          1503.64788          1050.22095          6205.61207           967.23637          1786.10363          3031.33340          5214.42443          5000.94161          5814.43374          4661.88219          4238.56910          1816.14029           911.18634          3457.18340         10500.12442           674.68457          2549.14848          2999.13496           295.54566          2442.35687          3892.77118          2726.44457           464.47661          4626.40918           785.52269          3537.65860          4026.60783          1969.49315           751.41262          3094.86149          3560.43443          5298.90111          5995.93541          5217.23810           639.40822           705.84882          1349.16497          4944.37305          1160.78032          2719.29651           930.40048           620.289