# vtk DataFile Version 3.0
Output from R2
ASCII
DATASET UNSTRUCTURED_GRID
POINTS       1414 double
     0.00000  2968.10000   0.
     1.54000  2966.60000   0.
     3.08000  2964.90000   0.
     4.61000  2964.10000   0.
     6.15000  2963.30000   0.
     7.69000  2962.60000   0.
     9.23000  2961.50000   0.
    10.76000  2960.70000   0.
    12.30000  2960.00000   0.
    13.84000  2959.30000   0.
    15.38000  2958.70000   0.
    16.91000  2958.10000   0.
    18.45000  2957.30000   0.
    19.99000  2956.60000   0.
    21.52000  2955.80000   0.
    23.06000  2955.00000   0.
    24.60000  2954.30000   0.
    26.14000  2953.50000   0.
    27.68000  2952.80000   0.
    29.21000  2951.90000   0.
    30.75000  2951.10000   0.
    32.29000  2950.20000   0.
    33.83000  2949.50000   0.
    35.36000  2948.70000   0.
    36.90000  2948.10000   0.
    38.44000  2947.30000   0.
    39.98000  2946.70000   0.
    41.51000  2946.10000   0.
    43.05000  2945.50000   0.
    44.59000  2945.10000   0.
    46.13000  2944.50000   0.
    47.66000  2944.10000   0.
    49.20000  2943.60000   0.
    50.74000  2943.40000   0.
    52.28000  2943.00000   0.
    53.81000  2942.50000   0.
    55.35000  2942.10000   0.
    56.89000  2941.60000   0.
    58.43000  2941.00000   0.
    59.96000  2940.60000   0.
    61.50000  2940.10000   0.
    63.04000  2939.50000   0.
    64.58000  2939.10000   0.
    66.11000  2939.20000   0.
    67.65000  2939.20000   0.
    69.19000  2939.10000   0.
    70.73000  2938.90000   0.
    72.26000  2938.60000   0.
    73.80000  2938.30000   0.
    75.34000  2938.50000   0.
    76.88000  2938.70000   0.
    78.41000  2938.60000   0.
    79.95000  2938.80000   0.
    81.49000  2938.90000   0.
    83.03000  2939.10000   0.
    84.56000  2939.10000   0.
     3.42000  2957.55000   0.
     8.97000  2954.51000   0.
    14.52000  2951.86000   0.
    20.07000  2949.38000   0.
    25.63000  2946.59000   0.
    31.18000  2943.67000   0.
    36.73000  2940.99000   0.
    42.28000  2938.62000   0.
    47.83000  2936.87000   0.
    53.39000  2935.46000   0.
    58.94000  2933.69000   0.
    64.49000  2931.95000   0.
    70.04000  2931.81000   0.
    75.60000  2931.36000   0.
    81.15000  2931.70000   0.
     0.51333  2967.60000   0.
     1.02667  2967.10000   0.
     2.05333  2966.03333   0.
     2.56667  2965.46667   0.
     3.59000  2964.63333   0.
     4.10000  2964.36667   0.
     5.12333  2963.83333   0.
     5.63667  2963.56667   0.
     6.66333  2963.06667   0.
     7.17667  2962.83333   0.
     8.20333  2962.23333   0.
     8.71667  2961.86667   0.
     9.74000  2961.23333   0.
    10.25000  2960.96667   0.
    11.27333  2960.46667   0.
    11.78667  2960.23333   0.
    12.81333  2959.76667   0.
    13.32667  2959.53333   0.
    14.35333  2959.10000   0.
    14.86667  2958.90000   0.
    15.89000  2958.50000   0.
    16.40000  2958.30000   0.
    17.42333  2957.83333   0.
    17.93667  2957.56667   0.
    18.96333  2957.06667   0.
    19.47667  2956.83333   0.
    20.50000  2956.33333   0.
    21.01000  2956.06667   0.
    22.03333  2955.53333   0.
    22.54667  2955.26667   0.
    23.57333  2954.76667   0.
    24.08667  2954.53333   0.
    25.11333  2954.03333   0.
    25.62667  2953.76667   0.
    26.65333  2953.26667   0.
    27.16667  2953.03333   0.
    28.19000  2952.50000   0.
    28.70000  2952.20000   0.
    29.72333  2951.63333   0.
    30.23667  2951.36667   0.
    31.26333  2950.80000   0.
    31.77667  2950.50000   0.
    32.80333  2949.96667   0.
    33.31667  2949.73333   0.
    34.34000  2949.23333   0.
    34.85000  2948.96667   0.
    35.87333  2948.50000   0.
    36.38667  2948.30000   0.
    37.41333  2947.83333   0.
    37.92667  2947.56667   0.
    38.95333  2947.10000   0.
    39.46667  2946.90000   0.
    40.49000  2946.50000   0.
    41.00000  2946.30000   0.
    42.02333  2945.90000   0.
    42.53667  2945.70000   0.
    43.56333  2945.36667   0.
    44.07667  2945.23333   0.
    45.10333  2944.90000   0.
    45.61667  2944.70000   0.
    46.64000  2944.36667   0.
    47.15000  2944.23333   0.
    48.17333  2943.93333   0.
    48.68667  2943.76667   0.
    49.71333  2943.53333   0.
    50.22667  2943.46667   0.
    51.25333  2943.26667   0.
    51.76667  2943.13333   0.
    52.79000  2942.83333   0.
    53.30000  2942.66667   0.
    54.32333  2942.36667   0.
    54.83667  2942.23333   0.
    55.86333  2941.93333   0.
    56.37667  2941.76667   0.
    57.40333  2941.40000   0.
    57.91667  2941.20000   0.
    58.94000  2940.86667   0.
    59.45000  2940.73333   0.
    60.47333  2940.43333   0.
    60.98667  2940.26667   0.
    62.01333  2939.90000   0.
    62.52667  2939.70000   0.
    63.55333  2939.36667   0.
    64.06667  2939.23333   0.
    65.34500  2939.15000   0.
    66.88000  2939.20000   0.
    68.42000  2939.15000   0.
    69.70333  2939.03333   0.
    70.21667  2938.96667   0.
    71.24000  2938.80000   0.
    71.75000  2938.70000   0.
    72.77333  2938.50000   0.
    73.28667  2938.40000   0.
    74.31333  2938.36667   0.
    74.82667  2938.43333   0.
    75.85333  2938.56667   0.
    76.36667  2938.63333   0.
    77.64500  2938.65000   0.
    78.92333  2938.66667   0.
    79.43667  2938.73333   0.
    80.72000  2938.85000   0.
    82.00333  2938.96667   0.
    82.51667  2939.03333   0.
    83.79500  2939.10000   0.
     0.08400  2959.57200   0.
     1.19600  2958.89800   0.
     2.30800  2958.22400   0.
     4.53000  2956.94200   0.
     5.64000  2956.33400   0.
     6.75000  2955.72600   0.
     7.86000  2955.11800   0.
    10.35750  2953.84750   0.
    11.74500  2953.18500   0.
    13.13250  2952.52250   0.
    15.90750  2951.24000   0.
    17.29500  2950.62000   0.
    18.68250  2950.00000   0.
    21.18200  2948.82200   0.
    22.29400  2948.26400   0.
    23.40600  2947.70600   0.
    24.51800  2947.14800   0.
    26.74000  2946.00600   0.
    27.85000  2945.42200   0.
    28.96000  2944.83800   0.
    30.07000  2944.25400   0.
    32.56750  2943.00000   0.
    33.95500  2942.33000   0.
    35.34250  2941.66000   0.
    38.11750  2940.39750   0.
    39.50500  2939.80500   0.
    40.89250  2939.21250   0.
    43.66750  2938.18250   0.
    45.05500  2937.74500   0.
    46.44250  2937.30750   0.
    49.22000  2936.51750   0.
    50.61000  2936.16500   0.
    52.00000  2935.81250   0.
    54.77750  2935.01750   0.
    56.16500  2934.57500   0.
    57.55250  2934.13250   0.
    60.32750  2933.25500   0.
    61.71500  2932.82000   0.
    63.10250  2932.38500   0.
    65.87750  2931.91500   0.
    67.26500  2931.88000   0.
    68.65250  2931.84500   0.
    71.43000  2931.69750   0.
    72.82000  2931.58500   0.
    74.21000  2931.47250   0.
    76.98750  2931.44500   0.
    78.37500  2931.53000   0.
    79.76250  2931.61500   0.
    82.53750  2931.75500   0.
    83.92500  2931.81000   0.
     6.60134  2937.05984   0.
    20.80435  2932.52560   0.
     3.78758  2946.36592   0.
    15.48523  2940.98228   0.
    29.30091  2934.50364   0.
    23.90594  2939.46561   0.
    40.87322  2931.62711   0.
     1.03219  2951.87344   0.
    10.83406  2946.32292   0.
    20.42668  2943.42459   0.
    48.80952  2930.83467   0.
    35.50309  2935.49258   0.
     7.54365  2949.73854   0.
    28.57967  2939.84283   0.
    15.90963  2945.83181   0.
    44.30452  2933.27820   0.
    -0.12722  2955.42655   0.
    24.47411  2943.04615   0.
     4.45051  2952.86019   0.
    40.01017  2935.22543   0.
    52.75593  2931.58993   0.
    13.75183  2934.27842   0.
    32.31862  2938.44653   0.
     0.40990  2931.04902   0.
    19.20708  2946.27332   0.
    57.19103  2930.55709   0.
    -0.97178  2947.27328   0.
    19.39705  2939.49643   0.
    11.08068  2950.12444   0.
    32.86215  2930.47012   0.
     7.41320  2941.82707   0.
    13.76382  2948.77946   0.
    27.17579  2942.79365   0.
     7.27112  2952.68663   0.
     2.71547  2954.94653   0.
    22.91159  2945.17994   0.
     2.00816  2941.86911   0.
    24.73355  2934.79062   0.
    47.86753  2934.00196   0.
    50.62083  2933.29089   0.
    60.15732  2930.28185   0.
    37.65425  2937.53830   0.
    44.64836  2929.77041   0.
    10.93416  2939.02064   0.
     4.26476  2949.76242   0.
    36.78915  2931.78219   0.
     7.36345  2946.13476   0.
    30.92470  2941.06806   0.
     6.19921  2931.10091   0.
    35.16618  2938.51604   0.
    16.36294  2929.87801   0.
    13.43632  2943.77014   0.
    42.64967  2935.50406   0.
    26.89596  2931.23775   0.
     1.59760  2936.73753   0.
    17.19200  2948.13905   0.
    -0.61497  2957.60981   0.
    26.49360  2937.36117   0.
     9.56799  2951.50953   0.
    17.55858  2943.77119   0.
    55.26825  2932.33039   0.
    22.03247  2936.46128   0.
    16.10828  2937.24515   0.
    22.48452  2941.40733   0.
    20.86327  2946.43955   0.
    29.71126  2937.35408   0.
    32.14062  2935.59882   0.
    45.26358  2935.44707   0.
    29.19256  2942.39482   0.
    25.22337  2944.48902   0.
    25.77440  2940.40763   0.
     5.12787  2951.33100   0.
     9.72036  2943.07255   0.
     0.63027  2944.64860   0.
     5.15669  2954.13690   0.
    33.80274  2940.56791   0.
     1.57076  2956.41210   0.
     9.31000  2947.97928   0.
     9.87726  2933.53233   0.
    53.60824  2932.85261   0.
    40.63972  2936.89193   0.
    13.47285  2946.23828   0.
    37.68088  2934.75035   0.
    46.32767  2931.88185   0.
    18.64740  2941.16071   0.
    13.09413  2950.32980   0.
    18.01744  2935.92389   0.
     0.55332  2948.73049   0.
     5.35766  2947.55011   0.
    42.44669  2933.52960   0.
    57.75733  2932.24094   0.
    23.68300  2931.83870   0.
    19.94397  2947.74183   0.
    61.81887  2931.15328   0.
[...]
POINT_DATA      1414
CELL_DATA      2568
SCALARS Resistivity(ohm.m) double 1
LOOKUP_TABLE default
          1132.15151          1877.76629          2141.79499          1091.51902           559.18559          2246.71694          1243.52659          1404.47726          1812.26760          1992.41938           788.90472          1910.13165           611.97557          2546.77670          2509.99069          1767.57541          1725.25793           470.19053           493.23955          2460.98844          1165.31393          1776.90281          1299.97280           604.40434          2095.87222           502.54100           259.15279          2275.43526          2382.35431          2136.54754           519.58890           507.51360          1795.26302           401.44707           335.28489          1654.63542           707.91326           953.68124          1252.55350          1526.28001          2008.93157           694.76609           438.51957          2496.74577           313.05026           420.16222          2945.75413           841.22286           624.80737           914.35208          2683.84245          2096.20339           997.52955          1738.41052          2284.36964           918.27200           329.58723          2142.21751           450.54694          1056.85074           584.03435          2411.03788           461.49243          1712.11102           262.51858          1700.26299          2299.54873          1998.26120           272.21527           703.23632           491.87807           765.00824          2306.67800           364.51534           305.86983          2890.68804          1401.43631           471.48080           323.75180          2823.90300          2725.69345          1340.31777           429.13912           431.00814          2327.65021           770.60418           309.92718          2288.90725           849.41312          1904.10780          1037.11921           338.71657          2186.48129           354.94086          1820.76679          2270.27182           567.31602          1163.89408          2439.95370           994.59192          1576.98631           589.82477           676.54245           731.93558          1067.93440          1876.86894           547.15184           939.84489          2161.49376          1230.57928           373.90503          1076.65149          2612.09276          1774.94788          2253.18680          1387.71372          1005.51507          1626.63206           438.21041           294.07125          2364.24569          1391.12888          2975.42060           766.10271           545.21254          2280.05720          2535.79382          3161.52940          1707.90520          1349.90587          2155.65510          1083.06941          1275.85314          2516.15083           844.53671          2800.83813           377.40824          1847.79100           995.83057          1453.57349          1694.11516           557.82014           654.02478          1270.95705          1810.90389           613.56124           470.88835          1512.07755          2180.49037           510.81350          2158.09672          2165.39276           931.11329           674.28312          2475.20484           277.88564          1479.77675           411.08948          2422.19156          1337.01654          1119.67762           550.51054          2440.30038           485.25424          2132.76311           593.85024          1391.27567          1738.88326          2109.46482          1913.77222           709.26855           796.66338           729.50880           259.50071           409.63020           906.29432           800.71099          3366.14722          2676.73076          1094.44430          2392.98487          1303.27442          2133.95246           767.88450           591.96368           955.87698           855.69727           674.36665           851.40824          2634.10990          1246.00611          2607.42470           588.77954          2737.99977           262.17734           506.81327          2701.87728          2087.80638          1211.06944           409.76020           278.15629           802.04429          1709.77433          1543.45518          1688.11467          1028.37532          3626.73773          2215.03220           380.55237          2114.65165          1356.91010           646.29389           420.50294           308.88219           544.00501          1172.46361          2535.30058           484.80702          1209.09250           547.65900           851.46475          1256.35081          1078.26559           316.43395           675.26916           629.57270           377.80350           535.92042          1360.31287           326.40218          1006.75470          1987.95860          1429.74948          2867.30724          2532.62583          1514.24021          2584.39865          1316.46458          1316.34248          1391.82020          2697.33590           670.11501           944.29055           376.53151          2633.56004           257.64019          1937.48389           509.47562           459.34801          2065.04703           253.40177          1911.63308          1579.40107           684.62455          2191.97473           965.04812           625.90657           726.70220           729.23961          2807.63961           607.36391          2103.58053           508.52057           408.36814           457.24850          1499.63652           327.53316          2182.58183           885.64127          2232.68550           961.21020          1971.69544          2511.89588          2349.16080           453.74376          1672.48172          2097.54729           446.94094           672.29699           639.96162           455.69845          1480.56823           264.71786           935.55730           899.62898          2159.09865           467.68809          2526.17739           652.05437           474.37119           905.13119           289.13801          2534.60140           627.33579          2148.64911          2347.47170          1367.90929           566.60858           410.21392           654.59259           977.50466           454.88154          2619.35036          2641.94260           412.89084          2040.74601          1369.48843          1617.17593          2161.90050           383.18971           675.26849           609.58132           278.29929          2249.84625           768.85017           311.19388           519.00956          1088.46677          2717.66706           468.78969          3136.08034           388.81631           997.74976           448.10780           552.93896          1215.21714           475.02882          1491.70866          1027.55907          2853.64452          1854.67181          2224.35017           480.65311          1458.37572           340.34408           390.80898           596.72991           642.37134          3062.94212           524.02804          2407.08621           420.99321          2230.47652           479.85885           612.53247          2022.70912          1148.24000          1133.02397           467.94603          2363.98841           468.99875          2602.72559           779.11211           350.78615           467.31648          2329.38911           522.67761          1492.14532           299.84558           367.53344           807.59524          1649.94034           893.33801           484.55848          1421.71902           452.53916           333.67037          2308.54643          1642.30442          2649.23334           450.85388          1370.22947          1469.99063           969.75696           290.78492          2723.03187           399.76806           468.70512           443.79730          2285.69621          1404.10787           440.85772          1975.42962          2588.45067           261.30623          1421.97228           615.89438          1256.17905           444.72884          1389.21802           667.21722           322.68674          1531.42576          1322.07300           435.99040           801.72625           527.92076          1256.41058          1927.84552           989.75208           604.27185           586.04476          1342.90654          1547.65126          1297.09131           870.18059           506.92266           929.39902          2277.12633          1613.38663          1439.87434          2450.54830           980.05902           643.93927          1083.90504          2591.87813           654.30379           929.34957           714.03009          1644.87599           955.93006           367.80990          2424.45766          1322.99112          1243.63291           271.91593          1530.34268           609.95479          1476.50749           513.64999          1297.96584           500.45281           437.56347          1961.83075          1024.01685          1531.70515          1462.75008           647.43149          2123.70259          1220.91221          3394.50023           575.39245          1175.60973          2163.68038          1144.21144          1061.08199          1356.23952          1214.69886          3898.08766           849.93017          3194.17411          1549.93371          1374.08188          1144.24519          1564.07802           844.64618          2391.42751           905.46713          1270.39794           453.72715          2060.69622          1342.91232           871.19497          1231.22516          2153.13563           839.87402           850.50582          1119.57719          1642.80724          1581.53536           804.48615          1981.20766           891.60887           285.86582          2045.65104          3627.04072          1019.08872           428.12057          1387.03116           747.85783          1033.07961          1899.55567           515.44008           568.90122          2104.03366          2794.18899          1177.84216           341.26391           655.66345           804.92788          1298.15520          1088.79536          1050.85938          1640.68137           803.81600          1576.73424           782.34006          1046.45683          2571.68655          1998.47911           659.45741           310.67792           622.66654          1227.68905           796.40773          1181.83044          3412.57089          1253.38931           344.57266           491.27333          1189.12937          1174.63719           888.03442           377.44233          3030.10086          1487.17903           348.43653          3125.11516          2483.60188           432.29334          1355.63070          1254.44032          1061.96646          1131.12501          1063.31511           520.20361          1466.18221          1546.60572          1574.33577          1209.83138           715.54371          1597.67372           466.03818          1148.65435           543.16082           446.80039           742.91777          1711.18012          1091.68568           913.09100           458.70530           363.69590          1746.04100          1131.76080          4212.07378          4237.84583          3568.98002          2205.76156          2029.42228          2175.57358          3357.48943          4665.01249           679.88238          4780.88334           481.37500          1124.35715          1412.04228           644.62307          3592.84395          4986.71107          1353.89110           441.30816          2297.83309          2695.50003           804.67459           837.30356          1481.94780          4432.15376          1487.74885          2270.88506           965.18119           604.80196          1343.35809          1729.54454           489.94335          3402.42513           510.12672          1467.77274          5311.76951          4163.41712          1877.10940          4836.85854           291.52156           816.52187           491.50728          2042.43015          2752.38145          1764.65404          3046.59067          2061.81091          2608.72506           775.64539          1627.00115          1278.48051          1812.89046          8857.84024          3764.20671           958.08319          4762.75830          4265.95668           803.59484           643.14721          4872.87017          2853.58032          4537.75223          4910.31168          1587.50948           950.47830           616.57091           540.71162           888.41619          4167.09423          1633.72892          1063.33171          1673.94276           324.27181          1089.71407          1944.30675          3692.66604          1111.83256           890.02479           660.30966           829.68158          1688.39171          1590.30844           902.45154          3382.62184          2910.53072          3267.67611          3395.99214          5934.19490          4242.62188          2702.89563           560.06288          4318.75449          1259.54783          1600.43036           647.57469          1479.98865           924.10085           394.00909          6143.45229          5473.91002          1530.65507          1759.24067          2785.86533          2496.43379          3157.90968          3074.44222           985.65539          1491.51138           639.77174           821.37578           388.39824           512.10336           776.81611           627.28628          2329.24166          4251.96612          3583.22389          1468.75352          2320.77133          1489.30696          1701.71699          8157.75833          4821.77943          2063.11004           404.02439           582.29112          5109.37716           660.47652          4029.43127          4505.56086          1069.61501          2290.67454           728.30729           966.76515          1074.70364          2446.74319          2425.42321          2877.15526           650.92278           503.60793          1145.26838           384.67014           645.80502           446.39226          3683.68199          5342.87511           496.55492          3132.63942           846.97986          2620.88375          1199.69558           669.54980           645.60076           696.61209           726.30606          2287.94911           761.50101          1610.84483           686.17614          2356.70794          2009.53340          4171.33763          2696.35566           704.46351           611.59831           338.52146          3099.37874           770.81848           769.99761          1320.21842          2761.11409           715.01208           831.51446           576.57935          1299.32811          1229.25572          1733.39842          1339.08545           679.34723           727.29646           718.13374          2660.09899          1901.12255          1289.46388          7937.84562          1069.55342           986.41577           878.60809          1832.99366          2487.76617          1537.02905          1629.06582          1785.26186          2722.59161           595.74663          7146.07311          1547.35808          2724.19374           890.09563          1157.40851          4116.03185          2928.10127           819.04336          1107.92614          3497.89999           533.21717           576.07725          1311.93120          2728.83344          5720.45120          1484.19937          7017.11306          1430.60461          1872.30483          1546.44320          1169.65838           470.31572           784.06229          2765.16792           654.98014          4110.75145           630.69694          3313.08988           862.74916           807.88855          1491.14092          2001.52185          2950.88728          5596.31292          2768.86981          1455.92529          1846.15747          1269.58469          5392.93469          7272.09992          2216.01009          1044.02735          3122.18696           696.79780          1123.91567           887.33894          2740.22607          1130.91888          1011.11907           567.33989           671.07899          3870.21234          1149.19737           764.30297          6003.47524          3939.33224          2432.52693          1426.55244          7707.02241           860.44506          2709.99955          3017.79196          2158.79613          1267.35201          3017.64052          5213.83600          1811.44091           439.58863           736.26412           833.17159          1907.90983          1801.74661           765.88285           688.81057          6406.08460           800.78701          1249.10996          2006.41115          4127.79291          4715.28521           475.76464          1378.14812           924.50977          1069.35675          1909.38408           820.15037           801.44080          1435.22755           793.17535           590.64958           401.27528           834.44710          2954.25761           505.52639          2947.55378          1759.50309          2080.74204          1513.07656          1938.37774          1642.45857           406.19013          4596.80191          1646.68569          2204.63835          2057.26456          2295.05695          4873.72778          1039.53976          5360.96010           602.11641           670.09994          1559.95909          1139.27200          7498.22452          2694.60453           927.69194          1772.01477          4067.19068          3483.73161           586.04608          4926.18145          1454.71312          2729.40860          1129.19043          3712.11905          4134.51438           502.93869          3445.75794          3953.75634          2649.90333          5279.89094           839.10171           774.43204          1135.03860          2197.72490           503.40811          8824.04526          3819.93920           601.12653          1840.90624          1858.89415          2120.74692           763.22775          1133.77970         13536.03480           699.57119          2566.41720          1383.74789           504.65024           846.36385          2742.14982          5138.32746          5862.79003          1736.11519          2124.62315          2602.97483          4309.00318           721.97599          1437.41782          2314.86793          1835.47764          5256.03958           660.62567          1132.24466          2956.25252           897.12629          3578.74457          2499.84716          6836.59225          2941.10575          1324.34513          1112.46906           677.39806          4986.81595          7327.96536          2123.53974           284.11443           373.62741           807.06697           798.68437          6158.62010          1350.61048          2015.05673          3291.36437          2440.77593          6323.89556          5503.71052           378.20542           620.14938           850.46735          1171.05262           657.12835          4255.82040          4179.47075          1476.59880           721.25007          1076.56796          2437.49093          3945.29558          2642.97228          2090.41586           999.12188          4014.60102          7262.00308           497.53355           657.93628          1966.72576          7962.26774          2168.92877          3090.93147          4869.75068           799.12245          1937.28051          4477.50801           544.85020          1446.05062          1098.92671          6089.38760           882.40502          1834.73084          3084.73288          5367.38865          5393.33918          5914.75367          4894.57578          4337.10742          1895.89589           881.06817          3404.90953          9931.03920           625.15294          2614.26255          2787.23121           292.21120          2454.17150          3529.99525          2549.27635           477.55697          4453.80458           801.66025          3513.83394          4224.82932          1993.15671           779.08793          2931.41817          3814.05792          5109.26607          5917.42335          5325.95149           619.47187           683.70023          1380.45417          4805.74356          1171.45986          2793.90414           942.97297           637.475