# vtk DataFile Version 3.0
Output from R2
ASCII
DATASET UNSTRUCTURED_GRID
POINTS       1414 double
     0.00000  2968.10000   0.
     1.54000  2966.60000   0.
     3.08000  2964.90000   0.
     4.61000  2964.10000   0.
     6.15000  2963.30000   0.
     7.69000  2962.60000   0.
     9.23000  2961.50000   0.
    10.76000  2960.70000   0.
    12.30000  2960.00000   0.
    13.84000  2959.30000   0.
    15.38000  2958.70000   0.
    16.91000  2958.10000   0.
    18.45000  2957.30000   0.
    19.99000  2956.60000   0.
    21.52000  2955.80000   0.
    23.06000  2955.00000   0.
    24.60000  2954.30000   0.
    26.14000  2953.50000   0.
    27.68000  2952.80000   0.
    29.21000  2951.90000   0.
    30.75000  2951.10000   0.
    32.29000  2950.20000   0.
    33.83000  2949.50000   0.
    35.36000  2948.70000   0.
    36.90000  2948.10000   0.
    38.44000  2947.30000   0.
    39.98000  2946.70000   0.
    41.51000  2946.10000   0.
    43.05000  2945.50000   0.
    44.59000  2945.10000   0.
    46.13000  2944.50000   0.
    47.66000  2944.10000   0.
    49.20000  2943.60000   0.
    50.74000  2943.40000   0.
    52.28000  2943.00000   0.
    53.81000  2942.50000   0.
    55.35000  2942.10000   0.
    56.89000  2941.60000   0.
    58.43000  2941.00000   0.
    59.96000  2940.60000   0.
    61.50000  2940.10000   0.
    63.04000  2939.50000   0.
    64.58000  2939.10000   0.
    66.11000  2939.20000   0.
    67.65000  2939.20000   0.
    69.19000  2939.10000   0.
    70.73000  2938.90000   0.
    72.26000  2938.60000   0.
    73.80000  2938.30000   0.
    75.34000  2938.50000   0.
    76.88000  2938.70000   0.
    78.41000  2938.60000   0.
    79.95000  2938.80000   0.
    81.49000  2938.90000   0.
    83.03000  2939.10000   0.
    84.56000  2939.10000   0.
     3.42000  2957.55000   0.
     8.97000  2954.51000   0.
    14.52000  2951.86000   0.
    20.07000  2949.38000   0.
    25.63000  2946.59000   0.
    31.18000  2943.67000   0.
    36.73000  2940.99000   0.
    42.28000  2938.62000   0.
    47.83000  2936.87000   0.
    53.39000  2935.46000   0.
    58.94000  2933.69000   0.
    64.49000  2931.95000   0.
    70.04000  2931.81000   0.
    75.60000  2931.36000   0.
    81.15000  2931.70000   0.
     0.51333  2967.60000   0.
     1.02667  2967.10000   0.
     2.05333  2966.03333   0.
     2.56667  2965.46667   0.
     3.59000  2964.63333   0.
     4.10000  2964.36667   0.
     5.12333  2963.83333   0.
     5.63667  2963.56667   0.
     6.66333  2963.06667   0.
     7.17667  2962.83333   0.
     8.20333  2962.23333   0.
     8.71667  2961.86667   0.
     9.74000  2961.23333   0.
    10.25000  2960.96667   0.
    11.27333  2960.46667   0.
    11.78667  2960.23333   0.
    12.81333  2959.76667   0.
    13.32667  2959.53333   0.
    14.35333  2959.10000   0.
    14.86667  2958.90000   0.
    15.89000  2958.50000   0.
    16.40000  2958.30000   0.
    17.42333  2957.83333   0.
    17.93667  2957.56667   0.
    18.96333  2957.06667   0.
    19.47667  2956.83333   0.
    20.50000  2956.33333   0.
    21.01000  2956.06667   0.
    22.03333  2955.53333   0.
    22.54667  2955.26667   0.
    23.57333  2954.76667   0.
    24.08667  2954.53333   0.
    25.11333  2954.03333   0.
    25.62667  2953.76667   0.
    26.65333  2953.26667   0.
    27.16667  2953.03333   0.
    28.19000  2952.50000   0.
    28.70000  2952.20000   0.
    29.72333  2951.63333   0.
    30.23667  2951.36667   0.
    31.26333  2950.80000   0.
    31.77667  2950.50000   0.
    32.80333  2949.96667   0.
    33.31667  2949.73333   0.
    34.34000  2949.23333   0.
    34.85000  2948.96667   0.
    35.87333  2948.50000   0.
    36.38667  2948.30000   0.
    37.41333  2947.83333   0.
    37.92667  2947.56667   0.
    38.95333  2947.10000   0.
    39.46667  2946.90000   0.
    40.49000  2946.50000   0.
    41.00000  2946.30000   0.
    42.02333  2945.90000   0.
    42.53667  2945.70000   0.
    43.56333  2945.36667   0.
    44.07667  2945.23333   0.
    45.10333  2944.90000   0.
    45.61667  2944.70000   0.
    46.64000  2944.36667   0.
    47.15000  2944.23333   0.
    48.17333  2943.93333   0.
    48.68667  2943.76667   0.
    49.71333  2943.53333   0.
    50.22667  2943.46667   0.
    51.25333  2943.26667   0.
    51.76667  2943.13333   0.
    52.79000  2942.83333   0.
    53.30000  2942.66667   0.
    54.32333  2942.36667   0.
    54.83667  2942.23333   0.
    55.86333  2941.93333   0.
    56.37667  2941.76667   0.
    57.40333  2941.40000   0.
    57.91667  2941.20000   0.
    58.94000  2940.86667   0.
    59.45000  2940.73333   0.
    60.47333  2940.43333   0.
    60.98667  2940.26667   0.
    62.01333  2939.90000   0.
    62.52667  2939.70000   0.
    63.55333  2939.36667   0.
    64.06667  2939.23333   0.
    65.34500  2939.15000   0.
    66.88000  2939.20000   0.
    68.42000  2939.15000   0.
    69.70333  2939.03333   0.
    70.21667  2938.96667   0.
    71.24000  2938.80000   0.
    71.75000  2938.70000   0.
    72.77333  2938.50000   0.
    73.28667  2938.40000   0.
    74.31333  2938.36667   0.
    74.82667  2938.43333   0.
    75.85333  2938.56667   0.
    76.36667  2938.63333   0.
    77.64500  2938.65000   0.
    78.92333  2938.66667   0.
    79.43667  2938.73333   0.
    80.72000  2938.85000   0.
    82.00333  2938.96667   0.
    82.51667  2939.03333   0.
    83.79500  2939.10000   0.
     0.08400  2959.57200   0.
     1.19600  2958.89800   0.
     2.30800  2958.22400   0.
     4.53000  2956.94200   0.
     5.64000  2956.33400   0.
     6.75000  2955.72600   0.
     7.86000  2955.11800   0.
    10.35750  2953.84750   0.
    11.74500  2953.18500   0.
    13.13250  2952.52250   0.
    15.90750  2951.24000   0.
    17.29500  2950.62000   0.
    18.68250  2950.00000   0.
    21.18200  2948.82200   0.
    22.29400  2948.26400   0.
    23.40600  2947.70600   0.
    24.51800  2947.14800   0.
    26.74000  2946.00600   0.
    27.85000  2945.42200   0.
    28.96000  2944.83800   0.
    30.07000  2944.25400   0.
    32.56750  2943.00000   0.
    33.95500  2942.33000   0.
    35.34250  2941.66000   0.
    38.11750  2940.39750   0.
    39.50500  2939.80500   0.
    40.89250  2939.21250   0.
    43.66750  2938.18250   0.
    45.05500  2937.74500   0.
    46.44250  2937.30750   0.
    49.22000  2936.51750   0.
    50.61000  2936.16500   0.
    52.00000  2935.81250   0.
    54.77750  2935.01750   0.
    56.16500  2934.57500   0.
    57.55250  2934.13250   0.
    60.32750  2933.25500   0.
    61.71500  2932.82000   0.
    63.10250  2932.38500   0.
    65.87750  2931.91500   0.
    67.26500  2931.88000   0.
    68.65250  2931.84500   0.
    71.43000  2931.69750   0.
    72.82000  2931.58500   0.
    74.21000  2931.47250   0.
    76.98750  2931.44500   0.
    78.37500  2931.53000   0.
    79.76250  2931.61500   0.
    82.53750  2931.75500   0.
    83.92500  2931.81000   0.
     6.60134  2937.05984   0.
    20.80435  2932.52560   0.
     3.78758  2946.36592   0.
    15.48523  2940.98228   0.
    29.30091  2934.50364   0.
    23.90594  2939.46561   0.
    40.87322  2931.62711   0.
     1.03219  2951.87344   0.
    10.83406  2946.32292   0.
    20.42668  2943.42459   0.
    48.80952  2930.83467   0.
    35.50309  2935.49258   0.
     7.54365  2949.73854   0.
    28.57967  2939.84283   0.
    15.90963  2945.83181   0.
    44.30452  2933.27820   0.
    -0.12722  2955.42655   0.
    24.47411  2943.04615   0.
     4.45051  2952.86019   0.
    40.01017  2935.22543   0.
    52.75593  2931.58993   0.
    13.75183  2934.27842   0.
    32.31862  2938.44653   0.
     0.40990  2931.04902   0.
    19.20708  2946.27332   0.
    57.19103  2930.55709   0.
    -0.97178  2947.27328   0.
    19.39705  2939.49643   0.
    11.08068  2950.12444   0.
    32.86215  2930.47012   0.
     7.41320  2941.82707   0.
    13.76382  2948.77946   0.
    27.17579  2942.79365   0.
     7.27112  2952.68663   0.
     2.71547  2954.94653   0.
    22.91159  2945.17994   0.
     2.00816  2941.86911   0.
    24.73355  2934.79062   0.
    47.86753  2934.00196   0.
    50.62083  2933.29089   0.
    60.15732  2930.28185   0.
    37.65425  2937.53830   0.
    44.64836  2929.77041   0.
    10.93416  2939.02064   0.
     4.26476  2949.76242   0.
    36.78915  2931.78219   0.
     7.36345  2946.13476   0.
    30.92470  2941.06806   0.
     6.19921  2931.10091   0.
    35.16618  2938.51604   0.
    16.36294  2929.87801   0.
    13.43632  2943.77014   0.
    42.64967  2935.50406   0.
    26.89596  2931.23775   0.
     1.59760  2936.73753   0.
    17.19200  2948.13905   0.
    -0.61497  2957.60981   0.
    26.49360  2937.36117   0.
     9.56799  2951.50953   0.
    17.55858  2943.77119   0.
    55.26825  2932.33039   0.
    22.03247  2936.46128   0.
    16.10828  2937.24515   0.
    22.48452  2941.40733   0.
    20.86327  2946.43955   0.
    29.71126  2937.35408   0.
    32.14062  2935.59882   0.
    45.26358  2935.44707   0.
    29.19256  2942.39482   0.
    25.22337  2944.48902   0.
    25.77440  2940.40763   0.
     5.12787  2951.33100   0.
     9.72036  2943.07255   0.
     0.63027  2944.64860   0.
     5.15669  2954.13690   0.
    33.80274  2940.56791   0.
     1.57076  2956.41210   0.
     9.31000  2947.97928   0.
     9.87726  2933.53233   0.
    53.60824  2932.85261   0.
    40.63972  2936.89193   0.
    13.47285  2946.23828   0.
    37.68088  2934.75035   0.
    46.32767  2931.88185   0.
    18.64740  2941.16071   0.
    13.09413  2950.32980   0.
    18.01744  2935.92389   0.
     0.55332  2948.73049   0.
     5.35766  2947.55011   0.
    42.44669  2933.52960   0.
    57.75733  2932.24094   0.
    23.68300  2931.83870   0.
    19.94397  2947.74183   0.
    61.81887  2931.15328   0.
[...]
POINT_DATA      1414
CELL_DATA      2568
SCALARS Resistivity(ohm.m) double 1
LOOKUP_TABLE default
          1114.57904          1818.11206          2255.56725          1074.03445           552.63054          2278.80800          1225.49122          1402.69741          1765.48801          2048.80748           790.13360          1981.30445           618.28634          2486.58230          2456.70042          1821.83936          1661.80847           471.48917           465.85161          2426.23863          1145.87724          1830.14065          1268.07700           630.42263          2011.14066           492.12038           267.83005          2277.80153          2366.86437          2256.53469           492.16218           501.23154          1733.53078           407.63093           345.25769          1656.68529           722.50309           939.07550          1222.97133          1517.10886          1960.71859           703.79425           423.10457          2482.30621           313.46459           425.43091          2972.08433           838.45600           633.98984           903.67515          2642.75865          2014.22768           988.86870          1676.64088          2354.25014           901.60357           333.68201          2237.09305           439.90644          1047.72188           575.90035          2329.53051           463.65822          1760.57733           269.80240          1657.98488          2248.44130          2021.56516           278.21922           682.62973           479.07980           771.01369          2242.35487           366.41072           317.75249          2987.33574          1381.05661           471.39192           341.75547          2822.69076          2695.00759          1336.61823           419.14321           431.66677          2241.20857           751.12530           313.49585          2259.51396           844.67218          1898.72333          1022.81610           335.41585          2255.32357           365.30736          1823.71213          2190.62851           568.30230          1155.08479          2374.54462           979.54372          1542.67115           571.72841           654.19656           736.46739          1047.08611          1818.14929           533.58785           932.58860          2215.38499          1223.27492           384.00720          1057.30429          2647.80498          1772.82644          2201.45369          1356.55174           988.18727          1570.50694           418.65271           299.62375          2354.71794          1364.11432          3034.68941           754.27750           542.48272          2210.83764          2553.22546          3247.04248          1738.85841          1338.85506          2137.86919          1064.87005          1245.14682          2440.44536           838.38809          2900.49141           386.09189          1781.36304           979.71689          1418.95468          1641.34887           538.99274           628.40952          1255.29727          1743.03886           592.72308           448.35868          1473.63237          2095.51892           518.02349          2281.59286          2085.96122           922.27509           689.11139          2416.33437           290.79445          1495.08783           417.11505          2392.86977          1301.95323          1110.45819           526.38746          2455.67380           471.70618          2212.17038           590.89492          1378.73854          1768.31202          2064.76661          1838.47388           719.46911           789.99099           707.80544           266.94343           397.11930           898.12008           780.17470          3528.49276          2749.59737          1083.15900          2357.73390          1301.84984          2088.55456           749.97064           580.08701           939.21811           836.13819           647.55475           848.33021          2613.25735          1217.02900          2561.77160           562.15345          2725.16155           268.78832           480.46505          2668.91562          2104.02488          1191.18540           393.31675           293.39500           803.00331          1724.55690          1492.65988          1723.42031          1011.95123          3815.12697          2320.66679           368.92376          2228.55265          1320.25126           627.23343           402.50299           316.14521           567.89303          1152.37822          2507.84609           477.96713          1192.15380           518.28049           846.70412          1247.73556          1065.36129           326.00294           668.25446           605.48599           392.74272           511.32963          1333.57923           330.25709           993.22632          2044.94785          1396.30593          2992.99215          2471.93880          1536.10442          2521.75949          1317.38800          1309.38781          1357.23140          2693.62843           673.10483           927.30115           373.16602          2583.71367           269.08765          1903.62741           491.90217           460.86431          2129.91639           265.01193          1983.27168          1604.38801           658.23700          2127.17587           954.55534           638.70241           701.50679           721.45204          2930.81316           607.93844          2193.52972           505.60298           397.89211           441.37793          1516.04498           334.11096          2254.81938           868.03345          2342.20197           950.48011          2062.33153          2543.03710          2318.30414           452.35726          1630.76811          2208.32555           454.67241           688.98402           653.81793           464.87322          1437.05550           274.72081           923.56358           894.54102          2254.95356           443.80469          2475.06449           650.51585           482.55956           895.81650           300.00629          2460.85703           607.77888          2074.41710          2338.17273          1357.23332           539.93384           403.47317           626.17981           961.25837           433.54789          2565.16277          2658.26824           418.22479          1970.47660          1331.63079          1564.62536          2105.09223           393.91731           650.92184           611.55544           282.42841          2288.34338           773.20676           321.94972           507.95710          1074.54101          2822.31016           460.33122          3283.51119           388.30174           976.46530           462.03538           523.33760          1188.82574           457.20797          1450.86447          1010.99606          2914.65494          1810.43525          2232.82582           464.69718          1465.50908           341.25899           381.50544           567.61792           630.48393          3185.20566           540.93806          2324.81146           426.02700          2208.91489           479.48535           587.35448          1945.76159          1137.24908          1112.06863           454.54975          2309.49772           469.67261          2591.13838           756.12399           363.08586           442.13718          2246.91105           498.89834          1492.07017           301.24758           358.95646           808.38499          1597.08526           888.08795           472.75037          1380.04564           445.73419           345.51019          2323.96713          1666.16602          2729.16899           458.40143          1334.15435          1426.08514           955.33137           295.92332          2747.76591           394.80713           471.68620           446.03879          2197.30682          1365.65515           444.77691          1915.24975          2523.28169           275.29782          1381.46817           606.27331          1252.68234           422.82769          1393.58224           649.21244           321.25028          1483.49145          1306.00385           443.12292           803.12161           514.91841          1245.69205          1853.69257           981.03809           601.63362           569.59548          1315.96935          1513.11379          1274.41171           852.76465           503.37379           912.15344          2297.98258          1600.46307          1430.46263          2367.56037           970.29925           661.26129          1064.17839          2538.84322           670.76935           908.05607           715.43702          1658.18739           947.84151           359.09286          2352.14515          1320.83457          1227.99792           277.32004          1540.78385           605.61125          1430.88850           510.30702          1279.45088           497.87848           441.72138          1983.33913          1012.62105          1486.45848          1445.74361           655.38710          2053.47686          1205.27264          3536.86017           603.60860          1153.52991          2187.81984          1122.47915          1050.44609          1324.54174          1189.68176          4112.71645           830.30514          3312.94530          1527.97664          1377.52861          1126.94645          1584.87230           831.87850          2336.29408           887.32525          1266.39898           455.91248          1994.65684          1312.50049           852.22554          1223.65668          2197.97592           823.19615           848.08460          1108.42955          1656.90110          1581.55446           806.58582          1911.32976           880.39182           291.71375          1996.02129          3828.97689          1009.57242           422.81603          1393.99452           743.76513          1014.83308          1936.54875           487.00731           563.08496          2147.10983          2779.27878          1169.00763           352.65531           675.00780           794.23747          1268.42470          1078.68420          1033.60039          1594.73738           782.53807          1535.00459           761.00550          1033.82547          2632.20619          1920.19086           670.06867           322.12925           621.52349          1215.32724           777.83922          1169.29786          3605.86190          1230.40687           339.22086           463.84361          1182.06484          1159.71773           879.59592           369.31178          3179.31551          1455.66274           342.53266          3294.30218          2412.12107           438.66863          1339.32854          1228.61482          1045.76683          1122.41936          1048.26735           500.94326          1481.38067          1502.66302          1525.72882          1198.30127           689.97426          1629.97646           470.09622          1133.79083           526.81180           451.19597           719.93071          1693.96441          1077.26458           895.51503           463.90582           358.62879          1711.15351          1115.96673          4230.53604          4268.10059          3560.12715          2183.32450          2035.45554          2182.13537          3345.36423          4850.89138           645.73934          4771.62349           465.93519          1128.74110          1411.17012           645.48598          3803.25373          4892.90498          1314.28760           438.90366          2221.66008          2707.23883           817.08528           857.37204          1459.22149          4506.08192          1448.01822          2445.35675           967.81700           597.87824          1347.49517          1721.16336           447.95151          3412.41636           514.02928          1470.34971          5401.17507          4163.85570          1866.80208          4925.80026           312.32688           847.23678           487.34484          1964.83212          2735.14291          1773.19201          2972.57271          2026.54332          2617.19625           794.65031          1600.09486          1265.11541          1858.75937          8692.24002          3743.42673           993.14710          4885.56706          4058.69865           839.97539           661.39740          4823.50287          2838.36579          4573.94113          4968.31426          1594.41312           916.42913           625.91931           520.54431           865.75604          4159.66901          1645.12654          1056.42597          1658.78714           350.16910          1100.24489          1958.12977          3682.81468          1085.79599           886.58775           684.35926           856.94968          1639.97133          1610.13276           883.87519          3365.31913          2906.93712          3301.53329          3408.10131          6015.93933          4221.08334          2622.22673           556.14797          4543.60827          1247.15111          1599.08644           642.26641          1463.06872           943.44272           397.85086          6164.79734          5351.75847          1513.87829          1763.08547          2787.73174          2436.91631          3259.18692          3097.49985           961.17481          1395.51743           650.13033           801.22132           391.05331           517.27453           776.25395           621.33937          2266.68041          4253.33030          3568.45043          1462.71126          2300.12651          1520.59001          1673.86332          8148.61351          5036.67128          2021.22914           405.67798           576.98615          5002.30017           691.98573          4143.64292          4544.27440          1078.46276          2368.24623           743.91991           962.68848          1089.39076          2421.55870          2414.88071          2876.03063           670.09434           494.45261          1176.08683           396.37784           658.46969           433.14546          3649.29279          5390.53870           458.30908          3070.92447           863.60068          2629.63061          1262.23568           668.08457           658.17702           699.83089           707.61570          2247.90966           778.54966          1552.09714           711.21741          2390.28540          1989.13866          4023.54090          2752.17257           693.35781           630.88613           360.31304          3114.95420           761.99563           779.93548          1313.82267          2702.89542           696.73469           837.72396           580.37763          1281.05492          1204.34097          1678.88090          1331.74725           679.05339           783.22060           742.05848          2651.84478          1991.68285          1308.02356          7745.12728          1081.70879           927.18226           898.10726          1685.68257          2458.83820          1523.94539          1648.61717          1653.90877          2772.68262           614.13115          7336.94500          1490.15874          2717.35501           851.25681          1183.42308          4096.92760          2891.91242           818.18276          1095.35678          3465.58171           488.50354           554.38188          1280.19833          2800.70227          5663.83371          1529.24586          7122.22054          1362.75810          1816.20512          1530.71663          1226.75094           479.41982           832.32384          2774.68278           678.08353          4196.34643           650.88971          3299.19032           826.61920           770.62191          1493.84098          2087.67956          2949.51758          5421.23743          2748.46003          1537.51437          1836.59919          1262.36167          5519.48965          7360.12807          2193.20114          1038.53036          3021.20529           688.09652          1153.74240           913.21538          2634.67044          1169.82813          1052.01629           580.14104           673.95179          3898.67353          1081.50374           765.54981          6232.66832          3935.27608          2486.22676          1453.50320          7586.17663           876.78402          2628.19453          3010.98540          2211.89701          1188.89419          3080.74037          5257.64850          1843.36761           422.52503           756.95767           861.70178          1822.44224          1807.58485           736.95338           703.65872          6482.13110           837.76430          1196.32291          2015.74114          4117.02278          4750.34889           458.12198          1418.94954           903.29900          1109.56924          1871.51335           796.65515           812.41768          1485.51860           803.80317           607.08251           399.23064           786.30529          2952.44347           504.45218          2949.15601          1796.15678          2043.45447          1481.35929          1946.63262          1625.60706           405.60454          4320.05598          1614.62970          2174.47100          1990.15266          2219.30422          4923.65306          1045.73946          5487.17405           604.33626           682.41561          1573.90954          1187.48694          7565.49530          2662.24668           902.92837          1776.39419          4072.81166          3463.59540           610.97741          5006.16035          1450.16467          2780.94130          1136.77134          3781.89416          4028.69371           500.08821          3444.93826          3859.61416          2664.52027          5371.99487           845.00360           759.04366          1180.73365          2301.94029           457.99458          8431.84154          3795.05848           633.84328          1841.52271          1773.23255          2143.66562           772.76124          1161.96730         12900.19614           681.44876          2532.20015          1380.29652           481.03202           846.36031          2685.75539          5119.35813          5826.91841          1699.39426          2310.80668          2617.63829          4524.16961           738.41571          1474.83011          2204.41851          1841.66126          5336.72797           671.20576          1174.89704          3001.30923           873.29126          3863.37141          2416.72350          6928.89892          2710.68044          1269.48699          1168.90493           676.65293          5099.67441          7392.48976          1977.29940           300.28262           379.99869           803.65067           825.06180          6324.77133          1420.62363          2116.44716          3283.94269          2519.53339          6118.86343          5551.39250           384.77709           643.14572           828.69818          1154.19024           645.62076          4252.32126          4103.58866          1413.70645           708.41801          1070.36006          2343.93517          3922.44882          2605.56042          2095.79472           940.71984          4167.85112          7308.23157           467.39230           681.49255          1946.48717          7833.08514          2062.03164          3093.58315          4852.73805           782.19366          1895.80119          4573.22223           539.36702          1432.31229          1083.41931          5942.83338           882.82003          1823.08082          3007.31930          5526.85487          5228.17473          6068.26008          4877.51552          4358.11022          1928.84437           918.59467          3424.49737          9553.11605           636.46690          2623.82033          2724.88251           302.83134          2588.91700          3344.96621          2508.61172           463.19770          4454.47584           792.90682          3485.42100          4264.09201          1982.80694           805.40677          3074.67229          3653.15252          5134.10515          6095.45762          5483.46594           638.05294           700.74379          1314.55323          4888.36187          1177.59547          2792.88743           891.24363           632.771