# vtk DataFile Version 3.0
Output from R2
ASCII
DATASET UNSTRUCTURED_GRID
POINTS       1414 double
     0.00000  2968.10000   0.
     1.54000  2966.60000   0.
     3.08000  2964.90000   0.
     4.61000  2964.10000   0.
     6.15000  2963.30000   0.
     7.69000  2962.60000   0.
     9.23000  2961.50000   0.
    10.76000  2960.70000   0.
    12.30000  2960.00000   0.
    13.84000  2959.30000   0.
    15.38000  2958.70000   0.
    16.91000  2958.10000   0.
    18.45000  2957.30000   0.
    19.99000  2956.60000   0.
    21.52000  2955.80000   0.
    23.06000  2955.00000   0.
    24.60000  2954.30000   0.
    26.14000  2953.50000   0.
    27.68000  2952.80000   0.
    29.21000  2951.90000   0.
    30.75000  2951.10000   0.
    32.29000  2950.20000   0.
    33.83000  2949.50000   0.
    35.36000  2948.70000   0.
    36.90000  2948.10000   0.
    38.44000  2947.30000   0.
    39.98000  2946.70000   0.
    41.51000  2946.10000   0.
    43.05000  2945.50000   0.
    44.59000  2945.10000   0.
    46.13000  2944.50000   0.
    47.66000  2944.10000   0.
    49.20000  2943.60000   0.
    50.74000  2943.40000   0.
    52.28000  2943.00000   0.
    53.81000  2942.50000   0.
    55.35000  2942.10000   0.
    56.89000  2941.60000   0.
    58.43000  2941.00000   0.
    59.96000  2940.60000   0.
    61.50000  2940.10000   0.
    63.04000  2939.50000   0.
    64.58000  2939.10000   0.
    66.11000  2939.20000   0.
    67.65000  2939.20000   0.
    69.19000  2939.10000   0.
    70.73000  2938.90000   0.
    72.26000  2938.60000   0.
    73.80000  2938.30000   0.
    75.34000  2938.50000   0.
    76.88000  2938.70000   0.
    78.41000  2938.60000   0.
    79.95000  2938.80000   0.
    81.49000  2938.90000   0.
    83.03000  2939.10000   0.
    84.56000  2939.10000   0.
     3.42000  2957.55000   0.
     8.97000  2954.51000   0.
    14.52000  2951.86000   0.
    20.07000  2949.38000   0.
    25.63000  2946.59000   0.
    31.18000  2943.67000   0.
    36.73000  2940.99000   0.
    42.28000  2938.62000   0.
    47.83000  2936.87000   0.
    53.39000  2935.46000   0.
    58.94000  2933.69000   0.
    64.49000  2931.95000   0.
    70.04000  2931.81000   0.
    75.60000  2931.36000   0.
    81.15000  2931.70000   0.
     0.51333  2967.60000   0.
     1.02667  2967.10000   0.
     2.05333  2966.03333   0.
     2.56667  2965.46667   0.
     3.59000  2964.63333   0.
     4.10000  2964.36667   0.
     5.12333  2963.83333   0.
     5.63667  2963.56667   0.
     6.66333  2963.06667   0.
     7.17667  2962.83333   0.
     8.20333  2962.23333   0.
     8.71667  2961.86667   0.
     9.74000  2961.23333   0.
    10.25000  2960.96667   0.
    11.27333  2960.46667   0.
    11.78667  2960.23333   0.
    12.81333  2959.76667   0.
    13.32667  2959.53333   0.
    14.35333  2959.10000   0.
    14.86667  2958.90000   0.
    15.89000  2958.50000   0.
    16.40000  2958.30000   0.
    17.42333  2957.83333   0.
    17.93667  2957.56667   0.
    18.96333  2957.06667   0.
    19.47667  2956.83333   0.
    20.50000  2956.33333   0.
    21.01000  2956.06667   0.
    22.03333  2955.53333   0.
    22.54667  2955.26667   0.
    23.57333  2954.76667   0.
    24.08667  2954.53333   0.
    25.11333  2954.03333   0.
    25.62667  2953.76667   0.
    26.65333  2953.26667   0.
    27.16667  2953.03333   0.
    28.19000  2952.50000   0.
    28.70000  2952.20000   0.
    29.72333  2951.63333   0.
    30.23667  2951.36667   0.
    31.26333  2950.80000   0.
    31.77667  2950.50000   0.
    32.80333  2949.96667   0.
    33.31667  2949.73333   0.
    34.34000  2949.23333   0.
    34.85000  2948.96667   0.
    35.87333  2948.50000   0.
    36.38667  2948.30000   0.
    37.41333  2947.83333   0.
    37.92667  2947.56667   0.
    38.95333  2947.10000   0.
    39.46667  2946.90000   0.
    40.49000  2946.50000   0.
    41.00000  2946.30000   0.
    42.02333  2945.90000   0.
    42.53667  2945.70000   0.
    43.56333  2945.36667   0.
    44.07667  2945.23333   0.
    45.10333  2944.90000   0.
    45.61667  2944.70000   0.
    46.64000  2944.36667   0.
    47.15000  2944.23333   0.
    48.17333  2943.93333   0.
    48.68667  2943.76667   0.
    49.71333  2943.53333   0.
    50.22667  2943.46667   0.
    51.25333  2943.26667   0.
    51.76667  2943.13333   0.
    52.79000  2942.83333   0.
    53.30000  2942.66667   0.
    54.32333  2942.36667   0.
    54.83667  2942.23333   0.
    55.86333  2941.93333   0.
    56.37667  2941.76667   0.
    57.40333  2941.40000   0.
    57.91667  2941.20000   0.
    58.94000  2940.86667   0.
    59.45000  2940.73333   0.
    60.47333  2940.43333   0.
    60.98667  2940.26667   0.
    62.01333  2939.90000   0.
    62.52667  2939.70000   0.
    63.55333  2939.36667   0.
    64.06667  2939.23333   0.
    65.34500  2939.15000   0.
    66.88000  2939.20000   0.
    68.42000  2939.15000   0.
    69.70333  2939.03333   0.
    70.21667  2938.96667   0.
    71.24000  2938.80000   0.
    71.75000  2938.70000   0.
    72.77333  2938.50000   0.
    73.28667  2938.40000   0.
    74.31333  2938.36667   0.
    74.82667  2938.43333   0.
    75.85333  2938.56667   0.
    76.36667  2938.63333   0.
    77.64500  2938.65000   0.
    78.92333  2938.66667   0.
    79.43667  2938.73333   0.
    80.72000  2938.85000   0.
    82.00333  2938.96667   0.
    82.51667  2939.03333   0.
    83.79500  2939.10000   0.
     0.08400  2959.57200   0.
     1.19600  2958.89800   0.
     2.30800  2958.22400   0.
     4.53000  2956.94200   0.
     5.64000  2956.33400   0.
     6.75000  2955.72600   0.
     7.86000  2955.11800   0.
    10.35750  2953.84750   0.
    11.74500  2953.18500   0.
    13.13250  2952.52250   0.
    15.90750  2951.24000   0.
    17.29500  2950.62000   0.
    18.68250  2950.00000   0.
    21.18200  2948.82200   0.
    22.29400  2948.26400   0.
    23.40600  2947.70600   0.
    24.51800  2947.14800   0.
    26.74000  2946.00600   0.
    27.85000  2945.42200   0.
    28.96000  2944.83800   0.
    30.07000  2944.25400   0.
    32.56750  2943.00000   0.
    33.95500  2942.33000   0.
    35.34250  2941.66000   0.
    38.11750  2940.39750   0.
    39.50500  2939.80500   0.
    40.89250  2939.21250   0.
    43.66750  2938.18250   0.
    45.05500  2937.74500   0.
    46.44250  2937.30750   0.
    49.22000  2936.51750   0.
    50.61000  2936.16500   0.
    52.00000  2935.81250   0.
    54.77750  2935.01750   0.
    56.16500  2934.57500   0.
    57.55250  2934.13250   0.
    60.32750  2933.25500   0.
    61.71500  2932.82000   0.
    63.10250  2932.38500   0.
    65.87750  2931.91500   0.
    67.26500  2931.88000   0.
    68.65250  2931.84500   0.
    71.43000  2931.69750   0.
    72.82000  2931.58500   0.
    74.21000  2931.47250   0.
    76.98750  2931.44500   0.
    78.37500  2931.53000   0.
    79.76250  2931.61500   0.
    82.53750  2931.75500   0.
    83.92500  2931.81000   0.
     6.60134  2937.05984   0.
    20.80435  2932.52560   0.
     3.78758  2946.36592   0.
    15.48523  2940.98228   0.
    29.30091  2934.50364   0.
    23.90594  2939.46561   0.
    40.87322  2931.62711   0.
     1.03219  2951.87344   0.
    10.83406  2946.32292   0.
    20.42668  2943.42459   0.
    48.80952  2930.83467   0.
    35.50309  2935.49258   0.
     7.54365  2949.73854   0.
    28.57967  2939.84283   0.
    15.90963  2945.83181   0.
    44.30452  2933.27820   0.
    -0.12722  2955.42655   0.
    24.47411  2943.04615   0.
     4.45051  2952.86019   0.
    40.01017  2935.22543   0.
    52.75593  2931.58993   0.
    13.75183  2934.27842   0.
    32.31862  2938.44653   0.
     0.40990  2931.04902   0.
    19.20708  2946.27332   0.
    57.19103  2930.55709   0.
    -0.97178  2947.27328   0.
    19.39705  2939.49643   0.
    11.08068  2950.12444   0.
    32.86215  2930.47012   0.
     7.41320  2941.82707   0.
    13.76382  2948.77946   0.
    27.17579  2942.79365   0.
     7.27112  2952.68663   0.
     2.71547  2954.94653   0.
    22.91159  2945.17994   0.
     2.00816  2941.86911   0.
    24.73355  2934.79062   0.
    47.86753  2934.00196   0.
    50.62083  2933.29089   0.
    60.15732  2930.28185   0.
    37.65425  2937.53830   0.
    44.64836  2929.77041   0.
    10.93416  2939.02064   0.
     4.26476  2949.76242   0.
    36.78915  2931.78219   0.
     7.36345  2946.13476   0.
    30.92470  2941.06806   0.
     6.19921  2931.10091   0.
    35.16618  2938.51604   0.
    16.36294  2929.87801   0.
    13.43632  2943.77014   0.
    42.64967  2935.50406   0.
    26.89596  2931.23775   0.
     1.59760  2936.73753   0.
    17.19200  2948.13905   0.
    -0.61497  2957.60981   0.
    26.49360  2937.36117   0.
     9.56799  2951.50953   0.
    17.55858  2943.77119   0.
    55.26825  2932.33039   0.
    22.03247  2936.46128   0.
    16.10828  2937.24515   0.
    22.48452  2941.40733   0.
    20.86327  2946.43955   0.
    29.71126  2937.35408   0.
    32.14062  2935.59882   0.
    45.26358  2935.44707   0.
    29.19256  2942.39482   0.
    25.22337  2944.48902   0.
    25.77440  2940.40763   0.
     5.12787  2951.33100   0.
     9.72036  2943.07255   0.
     0.63027  2944.64860   0.
     5.15669  2954.13690   0.
    33.80274  2940.56791   0.
     1.57076  2956.41210   0.
     9.31000  2947.97928   0.
     9.87726  2933.53233   0.
    53.60824  2932.85261   0.
    40.63972  2936.89193   0.
    13.47285  2946.23828   0.
    37.68088  2934.75035   0.
    46.32767  2931.88185   0.
    18.64740  2941.16071   0.
    13.09413  2950.32980   0.
    18.01744  2935.92389   0.
     0.55332  2948.73049   0.
     5.35766  2947.55011   0.
    42.44669  2933.52960   0.
    57.75733  2932.24094   0.
    23.68300  2931.83870   0.
    19.94397  2947.74183   0.
    61.81887  2931.15328   0.
[...]
POINT_DATA      1414
CELL_DATA      2568
SCALARS Resistivity(ohm.m) double 1
LOOKUP_TABLE default
          1105.20558          1943.19635          2295.41829          1067.28151           564.85670          2385.54153          1164.28266          1291.99153          1811.06537          2153.03058           799.69370          2029.36221           618.92075          2462.64062          2434.70208          1758.81410          1747.83794           491.99326           523.16338          2466.31727          1113.89159          1846.47502          1283.99174           621.19169          2129.29185           491.54577           251.96392          2397.69632          2347.77277          2318.23446           555.02214           492.68892          1843.86877           389.49378           359.48508          1536.00233           735.94868           954.27023          1229.40105          1417.28816          2006.40729           715.28500           467.33413          2431.86022           324.68386           406.14831          2854.31669           846.44664           639.52506           915.85437          2572.39552          2111.67216           967.69932          1750.84893          2304.59351           929.00720           349.78590          2332.51553           442.75985          1018.59519           588.90817          2373.81324           489.14156          1729.98091           257.61267          1694.62000          2380.26278          2153.48884           280.13911           745.62276           475.22592           784.61514          2278.71621           388.69137           324.64975          2792.59767          1401.06019           491.41264           333.52373          2720.67859          2614.61854          1235.54372           424.46613           413.71660          2314.46234           806.91932           325.48276          2266.11519           856.89883          2024.13151          1018.65611           352.96443          2353.42284           382.17070          1707.73397          2255.76351           613.93022          1117.02523          2385.49220           986.00418          1611.16505           617.02487           717.42952           750.74194          1032.80736          1881.11449           565.36369           924.94411          2133.16491          1183.32086           403.65159          1024.86828          2538.58923          1863.83263          2232.58240          1362.89709           971.31434          1645.80235           463.77321           307.95242          2422.77461          1390.72471          2866.01694           794.64184           584.73782          2343.10826          2474.83921          3037.67379          1768.71554          1241.06906          2290.58243          1059.60104          1249.73434          2449.61082           854.14846          2726.10642           408.38127          1860.19685           989.10885          1434.86575          1736.38674           584.93072           697.73051          1174.64948          1846.45983           648.32670           490.09946          1532.07462          2220.40542           519.60149          2325.56429          2164.47013           923.55059           699.85225          2456.97580           287.31271          1401.15005           405.60143          2373.11241          1317.83355          1070.06737           584.31220          2409.36359           499.29915          2326.18050           587.36894          1286.72615          1652.59679          2102.75833          1947.47636           730.16132           815.51570           769.45584           264.81081           412.92878           888.41184           835.51383          3227.66729          2612.49339          1060.02548          2433.63234          1217.81046          2240.85113           802.84515           607.92330           958.78890           882.03448           721.45294           846.94758          2530.46716          1219.38989          2505.91523           634.36451          2626.61769           262.05834           543.97629          2587.96563          2249.52788          1185.57824           427.29762           282.97666           812.06198          1778.04453          1549.97402          1623.84617          1013.93954          3478.69791          2312.82043           393.41020          2288.75219          1346.94985           680.40326           433.47856           327.78081           570.51676          1145.76777          2455.26429           466.88549          1180.39934           588.02092           852.67241          1217.52898          1049.31392           338.34610           698.39950           675.10203           401.94245           576.86269          1330.39444           317.62045           963.25533          1961.53827          1436.12262          2807.22602          2477.66820          1469.88530          2497.63887          1246.72672          1283.62035          1391.09369          2587.94609           689.04560           949.76787           399.78415          2526.96188           262.74960          2040.63698           532.17466           492.74216          2248.19896           251.48113          1935.09252          1582.94572           731.60600          2272.60166           954.78512           645.41882           771.67278           754.23509          2769.71763           602.32982          2295.56727           544.11058           433.48665           459.17718          1481.73075           348.94797          2338.30873           904.37083          2343.90511           928.42542          2071.19174          2469.87256          2421.13680           435.94568          1721.35102          2232.36044           436.12484           700.57559           662.45069           449.93440          1472.27209           273.90782           934.64503           886.96537          2311.49276           498.07158          2478.79352           668.53990           514.40863           889.30699           305.98167          2468.05877           670.99024          2216.04713          2417.73385          1352.74857           606.09941           437.14040           702.85840           959.10421           468.45640          2521.28681          2549.62740           410.55521          2044.88743          1357.21244          1644.05218          2151.63475           412.45816           721.20487           612.13441           282.53383          2376.02990           781.01430           332.43633           537.03663          1024.47648          2684.88210           449.85574          3030.15295           378.87162           955.41913           481.53921           595.90776          1189.73295           486.19403          1479.99254          1012.94227          2747.51818          1934.82889          2369.75874           514.71733          1441.20851           334.92000           391.75278           643.14316           666.99072          2950.14101           543.14394          2402.47734           455.76367          2354.12096           491.46365           653.41504          2036.00326          1108.16640          1105.85665           466.35757          2416.15607           506.21628          2508.71112           818.14044           377.57218           494.68451          2354.13091           553.98091          1497.88136           305.92362           382.47922           814.18210          1651.73077           885.53906           519.12142          1414.29050           483.96851           358.38652          2403.90350          1680.41168          2605.47450           450.33293          1351.39380          1476.43528           937.52883           285.34683          2618.87427           393.59922           453.07180           449.71992          2302.67455          1402.91072           474.36579          1977.46071          2497.01326           257.36778          1410.37501           632.21053          1190.76801           463.50363          1351.71016           708.72956           324.49125          1530.22593          1239.65265           473.27056           809.02979           565.69364          1159.40137          1947.83284           956.18456           601.88494           627.30804          1334.73907          1533.18129          1281.19423           892.13758           504.41812           939.46385          2391.25550          1658.32200          1440.13885          2411.75808           945.18346           646.11721          1041.26106          2508.26019           680.81602           883.59075           734.25424          1692.82331           928.42514           374.71017          2428.48121          1281.02389          1215.97277           271.43816          1422.32261           616.85117          1478.52601           536.96727          1279.21271           527.70883           474.50938          1868.99583          1001.17617          1549.98326          1473.16308           665.83508          2121.36415          1128.72033          3233.51199           601.93655          1149.38491          2089.71736          1116.79118          1028.52515          1331.44033          1190.51244          3817.69901           877.32984          3061.12001          1580.41994          1281.08662          1069.12703          1477.05608           863.64233          2346.36151           921.34396          1217.79358           464.70783          2138.24245          1335.10630           894.99767          1146.53179          2331.10767           864.98731           847.16713          1053.47848          1533.18331          1614.87783           822.55039          2044.87812           899.22943           278.25150          2143.42937          3535.81193           977.11735           418.57235          1336.30463           770.37139          1010.48546          1826.58419           553.38693           601.03332          2282.93224          2695.98194          1103.42448           367.04292           685.48272           827.55522          1283.30290          1032.13411          1031.36067          1636.62278           839.27532          1567.80351           819.68521          1022.84813          2537.11396          2042.83295           680.45710           331.50421           631.49163          1193.00068           829.63905          1145.79278          3363.26257          1232.64895           351.37214           523.85902          1121.66077          1143.02348           891.66147           397.01185          2960.42003          1467.75734           360.22124          3080.99539          2453.98443           432.43880          1344.31087          1234.47894          1041.47507          1072.30827          1040.77820           558.93263          1427.19466          1538.92563          1571.85080          1121.75146           760.71397          1588.45420           481.50009          1071.41787           582.70620           453.26657           784.76833          1779.47273          1064.47045           926.75078           467.65143           382.74273          1813.39287          1102.42930          4431.81707          4577.04354          4010.42917          2578.37159          2122.96685          2219.08432          3162.70972          4765.84788           706.50394          4609.53265           511.31476          1108.65391          1433.60182           692.45134          3488.40849          5380.12049          1382.37416           442.85917          2221.70421          2714.89622           778.11119           915.70448          1578.50473          4044.30486          1541.91644          2080.81318           969.84876           650.57430          1388.58555          1707.82350           494.43932          3445.35105           483.27126          1433.15195          5476.20895          3985.35839          1840.95034          4925.63062           273.99345           835.70654           471.89776          2015.65381          2663.56947          1862.67109          2896.73731          2013.94036          2463.56337           735.04617          1626.14344          1255.54265          1826.21990          8310.39608          3866.71734           962.32291          4289.36405          4336.10739           816.94935           593.54366          5311.40859          2755.12822          4129.50177          4791.91024          1566.55485           906.58959           624.68416           549.86960           842.75741          4003.75583          1696.07009          1036.49411          1599.53058           314.61645          1098.79961          1824.19335          4089.58501          1129.93769           931.80967           693.66551           849.56723          1672.31315          1552.85729           920.91470          3911.46207          2699.62181          3222.70103          3959.30791          5152.74037          4000.49569          2903.41003           556.04803          4178.66771          1365.01942          1693.97933           642.57013          1526.75139           919.24866           396.75125          5418.34608          5524.47223          1621.62748          1719.86729          2782.84362          2474.92503          3179.80895          3069.72435           944.32945          1614.81041           640.35110           852.91162           376.01795           503.28770           760.89744           627.14881          2258.27262          4179.28888          3634.24495          1508.89670          2404.27254          1427.48585          1674.48563          8418.16057          4734.27576          2079.82185           387.38462           585.91667          5623.47995           685.62448          4031.45776          4239.15548          1070.94278          2329.99484           747.28134           952.48879          1080.65075          2358.86471          2369.94065          2677.84138           675.89236           503.47891          1197.32175           354.19899           630.74734           453.59352          3914.23881          5475.36485           495.96227          3178.10275           919.68545          2439.26534          1265.72137           711.13062           699.91659           699.86785           709.16669          2217.26913           829.49599          1719.10334           739.15517          2208.49633          1917.29029          4298.93337          2706.73719           734.70789           605.94241           311.56001          3537.00705           746.05604           792.96263          1372.21886          2806.74953           726.28657           808.55573           566.57315          1333.94419          1243.12071          1723.19134          1354.16017           676.95685           736.14337           677.16876          2537.01283          1840.31585          1223.48681          8332.16171          1067.92259          1010.94429           920.68394          1981.42567          2377.71835          1456.32481          1603.26253          1949.70301          2581.97835           582.69917          7025.92876          1536.22168          2648.98718           918.26171          1206.69675          4178.69642          2854.93489           782.13323          1132.13015          3891.35397           513.68887           572.91366          1357.57669          2736.09944          5148.23980          1503.86033          7012.11915          1417.06292          1904.33782          1572.63824          1233.17546           452.22666           768.29906          2921.41075           687.24080          4270.89372           665.47317          3289.17244           892.66964           847.60819          1460.98878          2065.63710          3266.63625          5516.06257          2637.24020          1527.66969          1870.26220          1314.26236          5292.46279          7593.02806          2124.69859          1107.68434          3116.91168           689.67309          1166.27134           866.23615          2913.12490          1185.37308           945.49531           516.65580           668.99105          3597.50977          1129.79401           757.73429          5950.63085          3917.12884          2320.24947          1392.90595          7057.65242           847.03685          2907.17048          3106.34952          2183.95290          1266.31017          3053.17857          5464.65551          1850.99901           449.00950           700.32700           872.31144          1900.36484          1816.64676           745.24795           688.23334          6321.55182           806.31027          1232.97940          2002.58735          3989.77558          5249.46128           485.59444          1359.84630           879.82077          1079.35453          1810.42472           777.41368           831.66617          1419.34473           781.55359           631.02103           396.91812           827.65217          3005.41453           475.06233          2923.64089          1754.54458          2071.02265          1558.95019          1907.52472          1617.95890           399.96332          4442.66616          1636.75329          2129.68217          2129.47371          2132.68639          5487.96012          1011.77026          4762.37284           595.45178           677.42692          1652.21801          1200.68956          7700.84222          2588.45318           960.21677          1689.41296          4122.82648          3909.36283           603.38554          4983.54871          1344.98564          2665.41754          1070.15096          3491.49196          3982.22115           508.64235          3366.82696          3838.36028          2679.10942          5415.52174           820.11763           758.44468          1191.14401          2304.35013           497.01539          9157.48961          3811.55011           602.91140          1779.93604          1976.57719          2105.65664           779.85467          1178.08479         14390.13311           710.24505          2465.39842          1374.92738           479.95944           844.03932          2709.14160          5099.07338          5777.98562          1734.90153          2135.89708          2415.06126          4174.94254           729.79577          1419.89165          2185.74660          1831.36345          5167.30823           661.29829          1188.92162          2749.75593           851.99746          3761.56644          2754.16559          6404.47320          3104.41167          1333.11947          1036.70425           667.68060          5227.83903          7113.07850          2117.00301           290.15392           361.61791           792.66655           827.07312          6148.07381          1410.22734          1959.58712          3900.74695          2411.67358          6549.06337          5569.00118           365.13451           614.00046           806.01272          1142.71317           651.06239          4137.00043          4060.88045          1432.64325           759.89076          1062.97437          2395.01164          3653.32410          2605.22899          2103.31166           977.68755          3973.73116          7486.55541           478.06304           647.84589          1914.20560          7612.23770          2197.18136          3100.22756          4591.19710           808.68815          1939.25604          4416.34573           553.95333          1400.33551          1094.60442          6312.41553           906.15684          1734.29741          3177.86847          5098.47468          5393.34825          5557.85889          4962.68056          4201.92160          1816.91162           887.15484          3090.75140         10427.54642           670.37460          2607.15119          3073.55024           274.82046          2279.74554          3931.67950          2556.84198           469.54315          4722.14079           787.04351          3841.01281          4085.02520          2003.91866           761.15250          3000.43985          3980.27452          5508.18344          6033.83317          4867.02335           603.59294           703.67238          1422.93861          5026.74274          1111.31925          2742.63449          1018.25135           655.783