# vtk DataFile Version 3.0
Output from R2
ASCII
DATASET UNSTRUCTURED_GRID
POINTS       1414 double
     0.00000  2968.10000   0.
     1.54000  2966.60000   0.
     3.08000  2964.90000   0.
     4.61000  2964.10000   0.
     6.15000  2963.30000   0.
     7.69000  2962.60000   0.
     9.23000  2961.50000   0.
    10.76000  2960.70000   0.
    12.30000  2960.00000   0.
    13.84000  2959.30000   0.
    15.38000  2958.70000   0.
    16.91000  2958.10000   0.
    18.45000  2957.30000   0.
    19.99000  2956.60000   0.
    21.52000  2955.80000   0.
    23.06000  2955.00000   0.
    24.60000  2954.30000   0.
    26.14000  2953.50000   0.
    27.68000  2952.80000   0.
    29.21000  2951.90000   0.
    30.75000  2951.10000   0.
    32.29000  2950.20000   0.
    33.83000  2949.50000   0.
    35.36000  2948.70000   0.
    36.90000  2948.10000   0.
    38.44000  2947.30000   0.
    39.98000  2946.70000   0.
    41.51000  2946.10000   0.
    43.05000  2945.50000   0.
    44.59000  2945.10000   0.
    46.13000  2944.50000   0.
    47.66000  2944.10000   0.
    49.20000  2943.60000   0.
    50.74000  2943.40000   0.
    52.28000  2943.00000   0.
    53.81000  2942.50000   0.
    55.35000  2942.10000   0.
    56.89000  2941.60000   0.
    58.43000  2941.00000   0.
    59.96000  2940.60000   0.
    61.50000  2940.10000   0.
    63.04000  2939.50000   0.
    64.58000  2939.10000   0.
    66.11000  2939.20000   0.
    67.65000  2939.20000   0.
    69.19000  2939.10000   0.
    70.73000  2938.90000   0.
    72.26000  2938.60000   0.
    73.80000  2938.30000   0.
    75.34000  2938.50000   0.
    76.88000  2938.70000   0.
    78.41000  2938.60000   0.
    79.95000  2938.80000   0.
    81.49000  2938.90000   0.
    83.03000  2939.10000   0.
    84.56000  2939.10000   0.
     3.42000  2957.55000   0.
     8.97000  2954.51000   0.
    14.52000  2951.86000   0.
    20.07000  2949.38000   0.
    25.63000  2946.59000   0.
    31.18000  2943.67000   0.
    36.73000  2940.99000   0.
    42.28000  2938.62000   0.
    47.83000  2936.87000   0.
    53.39000  2935.46000   0.
    58.94000  2933.69000   0.
    64.49000  2931.95000   0.
    70.04000  2931.81000   0.
    75.60000  2931.36000   0.
    81.15000  2931.70000   0.
     0.51333  2967.60000   0.
     1.02667  2967.10000   0.
     2.05333  2966.03333   0.
     2.56667  2965.46667   0.
     3.59000  2964.63333   0.
     4.10000  2964.36667   0.
     5.12333  2963.83333   0.
     5.63667  2963.56667   0.
     6.66333  2963.06667   0.
     7.17667  2962.83333   0.
     8.20333  2962.23333   0.
     8.71667  2961.86667   0.
     9.74000  2961.23333   0.
    10.25000  2960.96667   0.
    11.27333  2960.46667   0.
    11.78667  2960.23333   0.
    12.81333  2959.76667   0.
    13.32667  2959.53333   0.
    14.35333  2959.10000   0.
    14.86667  2958.90000   0.
    15.89000  2958.50000   0.
    16.40000  2958.30000   0.
    17.42333  2957.83333   0.
    17.93667  2957.56667   0.
    18.96333  2957.06667   0.
    19.47667  2956.83333   0.
    20.50000  2956.33333   0.
    21.01000  2956.06667   0.
    22.03333  2955.53333   0.
    22.54667  2955.26667   0.
    23.57333  2954.76667   0.
    24.08667  2954.53333   0.
    25.11333  2954.03333   0.
    25.62667  2953.76667   0.
    26.65333  2953.26667   0.
    27.16667  2953.03333   0.
    28.19000  2952.50000   0.
    28.70000  2952.20000   0.
    29.72333  2951.63333   0.
    30.23667  2951.36667   0.
    31.26333  2950.80000   0.
    31.77667  2950.50000   0.
    32.80333  2949.96667   0.
    33.31667  2949.73333   0.
    34.34000  2949.23333   0.
    34.85000  2948.96667   0.
    35.87333  2948.50000   0.
    36.38667  2948.30000   0.
    37.41333  2947.83333   0.
    37.92667  2947.56667   0.
    38.95333  2947.10000   0.
    39.46667  2946.90000   0.
    40.49000  2946.50000   0.
    41.00000  2946.30000   0.
    42.02333  2945.90000   0.
    42.53667  2945.70000   0.
    43.56333  2945.36667   0.
    44.07667  2945.23333   0.
    45.10333  2944.90000   0.
    45.61667  2944.70000   0.
    46.64000  2944.36667   0.
    47.15000  2944.23333   0.
    48.17333  2943.93333   0.
    48.68667  2943.76667   0.
    49.71333  2943.53333   0.
    50.22667  2943.46667   0.
    51.25333  2943.26667   0.
    51.76667  2943.13333   0.
    52.79000  2942.83333   0.
    53.30000  2942.66667   0.
    54.32333  2942.36667   0.
    54.83667  2942.23333   0.
    55.86333  2941.93333   0.
    56.37667  2941.76667   0.
    57.40333  2941.40000   0.
    57.91667  2941.20000   0.
    58.94000  2940.86667   0.
    59.45000  2940.73333   0.
    60.47333  2940.43333   0.
    60.98667  2940.26667   0.
    62.01333  2939.90000   0.
    62.52667  2939.70000   0.
    63.55333  2939.36667   0.
    64.06667  2939.23333   0.
    65.34500  2939.15000   0.
    66.88000  2939.20000   0.
    68.42000  2939.15000   0.
    69.70333  2939.03333   0.
    70.21667  2938.96667   0.
    71.24000  2938.80000   0.
    71.75000  2938.70000   0.
    72.77333  2938.50000   0.
    73.28667  2938.40000   0.
    74.31333  2938.36667   0.
    74.82667  2938.43333   0.
    75.85333  2938.56667   0.
    76.36667  2938.63333   0.
    77.64500  2938.65000   0.
    78.92333  2938.66667   0.
    79.43667  2938.73333   0.
    80.72000  2938.85000   0.
    82.00333  2938.96667   0.
    82.51667  2939.03333   0.
    83.79500  2939.10000   0.
     0.08400  2959.57200   0.
     1.19600  2958.89800   0.
     2.30800  2958.22400   0.
     4.53000  2956.94200   0.
     5.64000  2956.33400   0.
     6.75000  2955.72600   0.
     7.86000  2955.11800   0.
    10.35750  2953.84750   0.
    11.74500  2953.18500   0.
    13.13250  2952.52250   0.
    15.90750  2951.24000   0.
    17.29500  2950.62000   0.
    18.68250  2950.00000   0.
    21.18200  2948.82200   0.
    22.29400  2948.26400   0.
    23.40600  2947.70600   0.
    24.51800  2947.14800   0.
    26.74000  2946.00600   0.
    27.85000  2945.42200   0.
    28.96000  2944.83800   0.
    30.07000  2944.25400   0.
    32.56750  2943.00000   0.
    33.95500  2942.33000   0.
    35.34250  2941.66000   0.
    38.11750  2940.39750   0.
    39.50500  2939.80500   0.
    40.89250  2939.21250   0.
    43.66750  2938.18250   0.
    45.05500  2937.74500   0.
    46.44250  2937.30750   0.
    49.22000  2936.51750   0.
    50.61000  2936.16500   0.
    52.00000  2935.81250   0.
    54.77750  2935.01750   0.
    56.16500  2934.57500   0.
    57.55250  2934.13250   0.
    60.32750  2933.25500   0.
    61.71500  2932.82000   0.
    63.10250  2932.38500   0.
    65.87750  2931.91500   0.
    67.26500  2931.88000   0.
    68.65250  2931.84500   0.
    71.43000  2931.69750   0.
    72.82000  2931.58500   0.
    74.21000  2931.47250   0.
    76.98750  2931.44500   0.
    78.37500  2931.53000   0.
    79.76250  2931.61500   0.
    82.53750  2931.75500   0.
    83.92500  2931.81000   0.
     6.60134  2937.05984   0.
    20.80435  2932.52560   0.
     3.78758  2946.36592   0.
    15.48523  2940.98228   0.
    29.30091  2934.50364   0.
    23.90594  2939.46561   0.
    40.87322  2931.62711   0.
     1.03219  2951.87344   0.
    10.83406  2946.32292   0.
    20.42668  2943.42459   0.
    48.80952  2930.83467   0.
    35.50309  2935.49258   0.
     7.54365  2949.73854   0.
    28.57967  2939.84283   0.
    15.90963  2945.83181   0.
    44.30452  2933.27820   0.
    -0.12722  2955.42655   0.
    24.47411  2943.04615   0.
     4.45051  2952.86019   0.
    40.01017  2935.22543   0.
    52.75593  2931.58993   0.
    13.75183  2934.27842   0.
    32.31862  2938.44653   0.
     0.40990  2931.04902   0.
    19.20708  2946.27332   0.
    57.19103  2930.55709   0.
    -0.97178  2947.27328   0.
    19.39705  2939.49643   0.
    11.08068  2950.12444   0.
    32.86215  2930.47012   0.
     7.41320  2941.82707   0.
    13.76382  2948.77946   0.
    27.17579  2942.79365   0.
     7.27112  2952.68663   0.
     2.71547  2954.94653   0.
    22.91159  2945.17994   0.
     2.00816  2941.86911   0.
    24.73355  2934.79062   0.
    47.86753  2934.00196   0.
    50.62083  2933.29089   0.
    60.15732  2930.28185   0.
    37.65425  2937.53830   0.
    44.64836  2929.77041   0.
    10.93416  2939.02064   0.
     4.26476  2949.76242   0.
    36.78915  2931.78219   0.
     7.36345  2946.13476   0.
    30.92470  2941.06806   0.
     6.19921  2931.10091   0.
    35.16618  2938.51604   0.
    16.36294  2929.87801   0.
    13.43632  2943.77014   0.
    42.64967  2935.50406   0.
    26.89596  2931.23775   0.
     1.59760  2936.73753   0.
    17.19200  2948.13905   0.
    -0.61497  2957.60981   0.
    26.49360  2937.36117   0.
     9.56799  2951.50953   0.
    17.55858  2943.77119   0.
    55.26825  2932.33039   0.
    22.03247  2936.46128   0.
    16.10828  2937.24515   0.
    22.48452  2941.40733   0.
    20.86327  2946.43955   0.
    29.71126  2937.35408   0.
    32.14062  2935.59882   0.
    45.26358  2935.44707   0.
    29.19256  2942.39482   0.
    25.22337  2944.48902   0.
    25.77440  2940.40763   0.
     5.12787  2951.33100   0.
     9.72036  2943.07255   0.
     0.63027  2944.64860   0.
     5.15669  2954.13690   0.
    33.80274  2940.56791   0.
     1.57076  2956.41210   0.
     9.31000  2947.97928   0.
     9.87726  2933.53233   0.
    53.60824  2932.85261   0.
    40.63972  2936.89193   0.
    13.47285  2946.23828   0.
    37.68088  2934.75035   0.
    46.32767  2931.88185   0.
    18.64740  2941.16071   0.
    13.09413  2950.32980   0.
    18.01744  2935.92389   0.
     0.55332  2948.73049   0.
     5.35766  2947.55011   0.
    42.44669  2933.52960   0.
    57.75733  2932.24094   0.
    23.68300  2931.83870   0.
    19.94397  2947.74183   0.
    61.81887  2931.15328   0.
[...]
POINT_DATA      1414
CELL_DATA      2568
SCALARS Resistivity(ohm.m) double 1
LOOKUP_TABLE default
          1108.57465          1936.88006          2296.88596          1070.17811           560.74261          2368.38802          1165.68714          1299.82103          1807.83472          2149.23451           800.85739          2032.01153           619.37611          2460.43656          2434.57324          1768.10347          1743.42495           491.35564           524.17594          2449.64391          1113.37966          1852.74484          1284.36349           622.37543          2120.72542           491.59550           251.14006          2379.09955          2351.34876          2315.58459           555.43978           492.18754          1838.81039           388.08732           360.16217          1540.47108           736.14505           957.03766          1229.58982          1419.49548          2004.15573           715.93786           468.35037          2436.95514           324.66074           404.60819          2866.64934           848.13415           640.25872           915.45455          2568.17122          2105.07368           971.97663          1746.49504          2306.87885           931.38250           350.22770          2323.65084           443.52176          1023.79332           585.20086          2367.37292           489.04521          1739.06358           256.77113          1691.30724          2363.06188          2146.91737           279.92082           747.38489           474.44876           784.88348          2276.55562           389.34545           325.00191          2806.86660          1404.98266           490.50526           333.55738          2728.85031          2615.67266          1244.09370           424.72299           412.40331          2306.82343           808.74038           325.65819          2267.68368           857.02482          2019.46790          1022.30559           353.11092          2340.71426           382.82081          1710.16681          2250.62554           614.47055          1123.65088          2383.15319           989.09142          1611.38126           614.86192           717.14720           751.34351          1033.95689          1877.25113           562.33889           928.16195          2136.81710          1190.77588           404.46818          1026.95460          2548.44131          1863.63815          2231.74108          1360.10364           972.86985          1642.48269           464.74883           308.05676          2405.18080          1393.30229          2880.56955           795.05642           584.74907          2327.98924          2482.67723          3053.49630          1774.54661          1246.17516          2276.84015          1061.77365          1248.54561          2442.48487           855.66827          2739.44182           409.13562          1855.51101           991.91871          1431.84768          1733.16543           582.84021           697.70675          1178.72845          1841.08583           647.01935           491.25109          1532.12816          2209.78762           521.31769          2325.21243          2159.14439           926.42177           700.52567          2440.38777           287.28488          1411.80737           404.01998          2375.95704          1316.31622          1076.41163           583.37431          2415.40601           499.46328          2316.40244           583.85454          1289.54293          1661.05865          2101.49855          1941.06839           730.92271           816.34637           769.82816           264.49744           413.21379           890.78725           837.35336          3241.26638          2624.19366          1065.09802          2414.63719          1227.35457          2228.13939           803.45969           605.14237           961.27048           884.04018           722.22629           848.75898          2535.40547          1218.85616          2506.43022           635.90287          2632.85399           261.43792           545.31092          2590.03778          2238.93376          1189.06735           427.95741           282.78676           812.81937          1781.89973          1547.18062          1633.61221          1016.67116          3489.92763          2315.56262           393.70817          2287.17360          1346.57521           679.32418           434.15983           328.15922           572.38158          1148.74971          2459.17134           465.77835          1184.84590           588.45766           853.57418          1224.50706          1053.76976           338.88632           697.52244           676.76525           402.43738           578.33016          1327.53091           316.37878           967.05340          1967.89725          1437.30650          2820.33712          2463.13320          1480.58774          2486.98428          1256.47298          1290.99759          1391.93964          2595.45755           688.96738           951.99473           400.42211          2525.40146           262.52386          2033.75642           531.35090           493.02735          2241.13640           250.95192          1942.43241          1592.14258           733.07940          2259.05893           958.01855           646.68429           773.07942           754.09164          2781.97977           600.97523          2289.18667           544.05713           434.27444           460.34754          1491.38618           349.45702          2327.93862           906.38113          2346.74455           931.84041          2075.54766          2477.82005          2401.85382           434.58663          1719.53998          2234.51316           434.49228           701.09893           663.36544           448.32028          1469.50385           273.82243           937.35509           889.66098          2309.28674           499.26464          2463.80089           667.74865           515.17711           891.19749           306.26260          2458.21347           672.67627          2204.30866          2398.84866          1358.90046           605.78502           437.97979           704.11075           959.21846           469.66065          2512.09932          2558.74086           409.04359          2040.46496          1355.95140          1641.41830          2149.60575           413.13044           722.88363           611.41499           282.10410          2361.12438           782.08401           332.95141           534.68044          1029.89963          2696.44431           448.69555          3044.25492           377.91511           957.17531           482.23394           596.95430          1190.47947           487.17808          1476.95697          1015.15550          2761.02020          1929.55452          2353.08287           515.95763          1450.00047           333.95221           391.65342           644.47563           665.54179          2964.99261           545.12630          2389.62937           456.46766          2337.69879           490.09867           652.86562          2030.37752          1114.00345          1106.37944           467.68173          2398.20831           506.58184          2514.91461           819.77700           378.36459           495.87341          2340.89766           553.57295          1504.62430           305.58111           382.76666           815.37322          1647.96466           888.06238           520.36941          1412.46295           485.05063           359.08547          2389.19304          1687.40575          2616.57787           448.76443          1349.30352          1475.27434           939.97794           284.32892          2629.26047           393.11673           451.62959           448.24652          2291.87491          1402.67333           474.86950          1973.92026          2489.53900           256.83007          1408.13461           630.02908          1199.61376           464.57791          1360.99529           710.43724           323.95518          1527.22902          1240.27113           474.06517           810.38932           567.10858          1166.55898          1942.17660           960.45637           599.48109           628.90698          1337.26907          1529.91893          1284.54938           894.06325           505.44017           941.85246          2373.69736          1660.90513          1445.91490          2402.75861           949.18333           647.31441          1041.53133          2496.20440           681.57599           885.80384           734.45387          1698.23593           932.09097           374.69706          2413.02906          1289.50556          1220.97996           270.74246          1431.22556           614.84117          1476.57823           536.05997          1283.70813           527.06420           475.16673          1872.73868          1005.25680          1548.72275          1477.29854           666.27476          2117.40004          1134.08707          3248.05131           603.38405          1151.40217          2090.90664          1118.25282          1033.37622          1328.98247          1192.09927          3825.03095           879.19683          3076.53113          1582.79456          1290.95878          1073.58072          1487.18531           865.12528          2345.87045           923.55993          1226.19807           463.38114          2127.99899          1336.66828           897.04654          1154.80902          2318.38793           866.49639           849.10403          1059.94111          1540.84957          1619.92174           822.46650          2036.57716           901.34376           277.16696          2133.32749          3545.55228           981.92007           418.32241          1346.31603           770.61561          1009.80354          1833.26403           554.61873           600.45107          2272.50877          2700.82477          1111.06566           367.73593           686.16799           828.44134          1284.61284          1038.21397          1033.33827          1633.11843           840.84859          1564.44408           820.86928          1026.93179          2546.64461          2034.92944           681.13431           331.96156           630.26632          1198.91201           830.73337          1151.33280          3373.50743          1235.60708           351.18288           525.04378          1129.53718          1147.76811           893.80642           397.50464          2973.61133          1464.57326           360.29087          3092.81935          2439.66475           430.86940          1349.25419          1236.44209          1044.59411          1079.13465          1044.42288           560.35639          1437.57074          1535.66190          1568.49102          1128.93125           761.74589          1598.44002           480.62540          1077.19971           584.19381           451.83972           785.63683          1779.51783          1068.57557           928.91968           466.39463           383.16400          1811.02243          1106.53556          4423.65966          4573.78548          4005.36454          2587.57026          2127.42715          2216.74160          3172.21024          4770.00121           709.03861          4606.19036           508.94848          1111.00275          1435.48319           694.27883          3483.28447          5352.96378          1390.94309           442.74216          2210.88101          2713.35563           777.19470           916.24719          1578.80450          4051.99088          1538.52992          2061.86823           969.04883           652.99341          1393.85262          1703.11749           495.97450          3459.18471           484.69869          1439.31886          5486.51282          3991.33124          1838.37753          4922.17878           273.09675           833.79444           473.29630          2026.60068          2663.04543          1854.78273          2892.15131          2003.19070          2458.54085           734.32690          1624.36432          1251.26002          1824.34401          8311.02926          3863.18522           958.58824          4294.58003          4350.56934           814.84219           595.19224          5297.79440          2755.79509          4134.35686          4782.73835          1565.07917           911.15052           624.83795           551.93209           845.65976          4012.63374          1687.71071          1039.49171          1596.75295           314.04205          1098.93565          1808.59487          4084.07972          1128.07516           933.71740           695.00470           847.92347          1681.05408          1551.53381           919.24487          3910.28378          2700.91191          3237.64210          3960.60708          5149.09575          4003.28722          2899.88001           558.28885          4149.54499          1366.96119          1687.08146           644.95490          1526.74191           917.06907           396.88614          5403.76423          5532.30341          1618.68149          1714.09161          2783.61615          2481.31869          3170.72228          3058.75223           948.36099          1617.28691           637.43874           849.83027           376.44035           504.06997           762.40307           625.72652          2244.70653          4184.58576          3619.45916          1502.02109          2403.44914          1416.81377          1683.22623          8395.30768          4734.76227          2077.77852           387.97425           588.11000          5589.86177           686.13082          4018.24298          4224.90916          1071.57873          2342.46422           745.89166           950.25805          1081.20380          2366.76733          2384.01995          2671.23074           676.08407           505.42179          1195.47313           352.67856           629.25582           453.90263          3917.56072          5469.35360           497.23434          3183.85580           920.89525          2434.75652          1262.82988           709.68863           700.64517           701.41110           711.18227          2203.73515           829.98046          1724.33989           739.68594          2215.54892          1911.37124          4303.75520          2705.81540           733.89568           602.04825           310.34011          3538.67089           748.29803           792.00965          1376.62952          2809.22765           722.97990           809.80268           564.67840          1339.71116          1239.80844          1726.76451          1347.64953           677.09152           734.61977           674.97582          2531.65840          1829.08839          1220.16026          8309.49572          1068.97794          1014.76999           923.29156          1987.64277          2375.24980          1455.06357          1607.16475          1953.00408          2582.09075           585.07347          6991.27721          1532.98451          2647.12735           920.26016          1204.90234          4179.22483          2856.84235           781.19519          1137.96689          3890.74707           513.10372           570.17651          1365.10422          2735.45861          5136.05039          1502.96870          6996.77067          1422.92302          1904.81994          1567.93567          1230.59105           450.54238           767.27408          2921.16103           687.97459          4251.95664           666.24890          3289.36003           893.81636           846.21135          1463.05139          2058.33085          3270.00772          5526.11569          2634.28513          1523.01881          1875.13563          1318.82653          5274.24879          7575.79729          2116.54665          1108.96464          3119.12411           690.33757          1164.92324           867.36010          2919.81636          1183.48059           940.35563           518.14436           669.51151          3586.01630          1136.12122           759.31454          5935.26826          3905.82908          2313.35404          1396.01321          7036.11656           846.85032          2924.40023          3101.57152          2183.46709          1272.62380          3056.73935          5471.70896          1843.35793           449.99453           697.73581           873.12056          1900.01420          1816.01241           748.14173           689.75813          6306.55499           803.79152          1234.30743          1997.00657          3989.06088          5270.81796           487.29364          1350.95170           882.29763          1074.72643          1809.71864           780.52740           835.50042          1420.36114           784.08266           632.70919           397.60614           829.72091          3011.70945           476.13913          2931.91842          1743.02026          2071.58092          1562.86475          1909.13254          1613.35384           400.91770          4458.86749          1634.56767          2118.43764          2130.64084          2140.91905          5526.29191          1009.93597          4762.88374           592.50272           678.74635          1647.98966          1198.41016          7681.78306          2584.15949           961.56709          1690.37303          4113.73477          3903.89267           600.25057          4968.02834          1345.88518          2656.29634          1072.37237          3471.85398          3999.61031           508.44682          3370.81369          3850.36712          2664.06798          5446.01729           822.74880           759.94851          1189.13773          2312.85780           497.25237          9183.92680          3808.33471           597.71693          1780.79366          1974.01939          2101.35255           782.17149          1176.60290         14377.98729           711.91793          2475.34065          1379.84292           480.05648           843.43070          2711.25710          5100.35997          5774.15262          1728.44702          2138.03864          2412.94337          4179.90080           727.61588          1423.38544          2195.33218          1831.60935          5187.11498           658.72163          1186.90903          2740.71227           855.27293          3752.70887          2776.43209          6392.98225          3094.17758          1328.35418          1033.33412           668.90330          5260.58698          7096.81097          2116.96858           289.57503           360.84487           795.61265           828.25702          6138.40645          1406.94102          1951.43760          3902.84454          2398.25855          6569.17179          5584.50074           363.54796           611.04273           808.83581          1139.86649           652.11108          4142.68309          4063.75807          1433.59176           757.62045          1063.79733          2399.29783          3642.54665          2613.92756          2104.47331           983.30250          3946.96926          7463.83611           477.34123           645.90132          1906.02793          7592.05122          2202.19857          3108.77173          4596.61445           807.15053          1939.75885          4416.77888           554.02735          1397.14279          1092.20965          6336.91684           911.08421          1732.24018          3184.43593          5104.59473          5407.03223          5552.49410          4972.62653          4200.96139          1814.68724           885.36498          3085.50025         10442.76175           671.91898          2605.11193          3089.18093           273.68885          2266.80693          3933.03280          2575.13601           470.34788          4720.86039           789.61319          3837.50480          4092.57593          1997.85100           762.42873          2993.62814          3988.76591          5511.83125          6025.48332          4867.11874           604.90593           703.03042          1426.32000          5027.75058          1108.26564          2743.25811          1018.58836           657.553