# vtk DataFile Version 3.0
Output from R2
ASCII
DATASET UNSTRUCTURED_GRID
POINTS       1414 double
     0.00000  2968.10000   0.
     1.54000  2966.60000   0.
     3.08000  2964.90000   0.
     4.61000  2964.10000   0.
     6.15000  2963.30000   0.
     7.69000  2962.60000   0.
     9.23000  2961.50000   0.
    10.76000  2960.70000   0.
    12.30000  2960.00000   0.
    13.84000  2959.30000   0.
    15.38000  2958.70000   0.
    16.91000  2958.10000   0.
    18.45000  2957.30000   0.
    19.99000  2956.60000   0.
    21.52000  2955.80000   0.
    23.06000  2955.00000   0.
    24.60000  2954.30000   0.
    26.14000  2953.50000   0.
    27.68000  2952.80000   0.
    29.21000  2951.90000   0.
    30.75000  2951.10000   0.
    32.29000  2950.20000   0.
    33.83000  2949.50000   0.
    35.36000  2948.70000   0.
    36.90000  2948.10000   0.
    38.44000  2947.30000   0.
    39.98000  2946.70000   0.
    41.51000  2946.10000   0.
    43.05000  2945.50000   0.
    44.59000  2945.10000   0.
    46.13000  2944.50000   0.
    47.66000  2944.10000   0.
    49.20000  2943.60000   0.
    50.74000  2943.40000   0.
    52.28000  2943.00000   0.
    53.81000  2942.50000   0.
    55.35000  2942.10000   0.
    56.89000  2941.60000   0.
    58.43000  2941.00000   0.
    59.96000  2940.60000   0.
    61.50000  2940.10000   0.
    63.04000  2939.50000   0.
    64.58000  2939.10000   0.
    66.11000  2939.20000   0.
    67.65000  2939.20000   0.
    69.19000  2939.10000   0.
    70.73000  2938.90000   0.
    72.26000  2938.60000   0.
    73.80000  2938.30000   0.
    75.34000  2938.50000   0.
    76.88000  2938.70000   0.
    78.41000  2938.60000   0.
    79.95000  2938.80000   0.
    81.49000  2938.90000   0.
    83.03000  2939.10000   0.
    84.56000  2939.10000   0.
     3.42000  2957.55000   0.
     8.97000  2954.51000   0.
    14.52000  2951.86000   0.
    20.07000  2949.38000   0.
    25.63000  2946.59000   0.
    31.18000  2943.67000   0.
    36.73000  2940.99000   0.
    42.28000  2938.62000   0.
    47.83000  2936.87000   0.
    53.39000  2935.46000   0.
    58.94000  2933.69000   0.
    64.49000  2931.95000   0.
    70.04000  2931.81000   0.
    75.60000  2931.36000   0.
    81.15000  2931.70000   0.
     0.51333  2967.60000   0.
     1.02667  2967.10000   0.
     2.05333  2966.03333   0.
     2.56667  2965.46667   0.
     3.59000  2964.63333   0.
     4.10000  2964.36667   0.
     5.12333  2963.83333   0.
     5.63667  2963.56667   0.
     6.66333  2963.06667   0.
     7.17667  2962.83333   0.
     8.20333  2962.23333   0.
     8.71667  2961.86667   0.
     9.74000  2961.23333   0.
    10.25000  2960.96667   0.
    11.27333  2960.46667   0.
    11.78667  2960.23333   0.
    12.81333  2959.76667   0.
    13.32667  2959.53333   0.
    14.35333  2959.10000   0.
    14.86667  2958.90000   0.
    15.89000  2958.50000   0.
    16.40000  2958.30000   0.
    17.42333  2957.83333   0.
    17.93667  2957.56667   0.
    18.96333  2957.06667   0.
    19.47667  2956.83333   0.
    20.50000  2956.33333   0.
    21.01000  2956.06667   0.
    22.03333  2955.53333   0.
    22.54667  2955.26667   0.
    23.57333  2954.76667   0.
    24.08667  2954.53333   0.
    25.11333  2954.03333   0.
    25.62667  2953.76667   0.
    26.65333  2953.26667   0.
    27.16667  2953.03333   0.
    28.19000  2952.50000   0.
    28.70000  2952.20000   0.
    29.72333  2951.63333   0.
    30.23667  2951.36667   0.
    31.26333  2950.80000   0.
    31.77667  2950.50000   0.
    32.80333  2949.96667   0.
    33.31667  2949.73333   0.
    34.34000  2949.23333   0.
    34.85000  2948.96667   0.
    35.87333  2948.50000   0.
    36.38667  2948.30000   0.
    37.41333  2947.83333   0.
    37.92667  2947.56667   0.
    38.95333  2947.10000   0.
    39.46667  2946.90000   0.
    40.49000  2946.50000   0.
    41.00000  2946.30000   0.
    42.02333  2945.90000   0.
    42.53667  2945.70000   0.
    43.56333  2945.36667   0.
    44.07667  2945.23333   0.
    45.10333  2944.90000   0.
    45.61667  2944.70000   0.
    46.64000  2944.36667   0.
    47.15000  2944.23333   0.
    48.17333  2943.93333   0.
    48.68667  2943.76667   0.
    49.71333  2943.53333   0.
    50.22667  2943.46667   0.
    51.25333  2943.26667   0.
    51.76667  2943.13333   0.
    52.79000  2942.83333   0.
    53.30000  2942.66667   0.
    54.32333  2942.36667   0.
    54.83667  2942.23333   0.
    55.86333  2941.93333   0.
    56.37667  2941.76667   0.
    57.40333  2941.40000   0.
    57.91667  2941.20000   0.
    58.94000  2940.86667   0.
    59.45000  2940.73333   0.
    60.47333  2940.43333   0.
    60.98667  2940.26667   0.
    62.01333  2939.90000   0.
    62.52667  2939.70000   0.
    63.55333  2939.36667   0.
    64.06667  2939.23333   0.
    65.34500  2939.15000   0.
    66.88000  2939.20000   0.
    68.42000  2939.15000   0.
    69.70333  2939.03333   0.
    70.21667  2938.96667   0.
    71.24000  2938.80000   0.
    71.75000  2938.70000   0.
    72.77333  2938.50000   0.
    73.28667  2938.40000   0.
    74.31333  2938.36667   0.
    74.82667  2938.43333   0.
    75.85333  2938.56667   0.
    76.36667  2938.63333   0.
    77.64500  2938.65000   0.
    78.92333  2938.66667   0.
    79.43667  2938.73333   0.
    80.72000  2938.85000   0.
    82.00333  2938.96667   0.
    82.51667  2939.03333   0.
    83.79500  2939.10000   0.
     0.08400  2959.57200   0.
     1.19600  2958.89800   0.
     2.30800  2958.22400   0.
     4.53000  2956.94200   0.
     5.64000  2956.33400   0.
     6.75000  2955.72600   0.
     7.86000  2955.11800   0.
    10.35750  2953.84750   0.
    11.74500  2953.18500   0.
    13.13250  2952.52250   0.
    15.90750  2951.24000   0.
    17.29500  2950.62000   0.
    18.68250  2950.00000   0.
    21.18200  2948.82200   0.
    22.29400  2948.26400   0.
    23.40600  2947.70600   0.
    24.51800  2947.14800   0.
    26.74000  2946.00600   0.
    27.85000  2945.42200   0.
    28.96000  2944.83800   0.
    30.07000  2944.25400   0.
    32.56750  2943.00000   0.
    33.95500  2942.33000   0.
    35.34250  2941.66000   0.
    38.11750  2940.39750   0.
    39.50500  2939.80500   0.
    40.89250  2939.21250   0.
    43.66750  2938.18250   0.
    45.05500  2937.74500   0.
    46.44250  2937.30750   0.
    49.22000  2936.51750   0.
    50.61000  2936.16500   0.
    52.00000  2935.81250   0.
    54.77750  2935.01750   0.
    56.16500  2934.57500   0.
    57.55250  2934.13250   0.
    60.32750  2933.25500   0.
    61.71500  2932.82000   0.
    63.10250  2932.38500   0.
    65.87750  2931.91500   0.
    67.26500  2931.88000   0.
    68.65250  2931.84500   0.
    71.43000  2931.69750   0.
    72.82000  2931.58500   0.
    74.21000  2931.47250   0.
    76.98750  2931.44500   0.
    78.37500  2931.53000   0.
    79.76250  2931.61500   0.
    82.53750  2931.75500   0.
    83.92500  2931.81000   0.
     6.60134  2937.05984   0.
    20.80435  2932.52560   0.
     3.78758  2946.36592   0.
    15.48523  2940.98228   0.
    29.30091  2934.50364   0.
    23.90594  2939.46561   0.
    40.87322  2931.62711   0.
     1.03219  2951.87344   0.
    10.83406  2946.32292   0.
    20.42668  2943.42459   0.
    48.80952  2930.83467   0.
    35.50309  2935.49258   0.
     7.54365  2949.73854   0.
    28.57967  2939.84283   0.
    15.90963  2945.83181   0.
    44.30452  2933.27820   0.
    -0.12722  2955.42655   0.
    24.47411  2943.04615   0.
     4.45051  2952.86019   0.
    40.01017  2935.22543   0.
    52.75593  2931.58993   0.
    13.75183  2934.27842   0.
    32.31862  2938.44653   0.
     0.40990  2931.04902   0.
    19.20708  2946.27332   0.
    57.19103  2930.55709   0.
    -0.97178  2947.27328   0.
    19.39705  2939.49643   0.
    11.08068  2950.12444   0.
    32.86215  2930.47012   0.
     7.41320  2941.82707   0.
    13.76382  2948.77946   0.
    27.17579  2942.79365   0.
     7.27112  2952.68663   0.
     2.71547  2954.94653   0.
    22.91159  2945.17994   0.
     2.00816  2941.86911   0.
    24.73355  2934.79062   0.
    47.86753  2934.00196   0.
    50.62083  2933.29089   0.
    60.15732  2930.28185   0.
    37.65425  2937.53830   0.
    44.64836  2929.77041   0.
    10.93416  2939.02064   0.
     4.26476  2949.76242   0.
    36.78915  2931.78219   0.
     7.36345  2946.13476   0.
    30.92470  2941.06806   0.
     6.19921  2931.10091   0.
    35.16618  2938.51604   0.
    16.36294  2929.87801   0.
    13.43632  2943.77014   0.
    42.64967  2935.50406   0.
    26.89596  2931.23775   0.
     1.59760  2936.73753   0.
    17.19200  2948.13905   0.
    -0.61497  2957.60981   0.
    26.49360  2937.36117   0.
     9.56799  2951.50953   0.
    17.55858  2943.77119   0.
    55.26825  2932.33039   0.
    22.03247  2936.46128   0.
    16.10828  2937.24515   0.
    22.48452  2941.40733   0.
    20.86327  2946.43955   0.
    29.71126  2937.35408   0.
    32.14062  2935.59882   0.
    45.26358  2935.44707   0.
    29.19256  2942.39482   0.
    25.22337  2944.48902   0.
    25.77440  2940.40763   0.
     5.12787  2951.33100   0.
     9.72036  2943.07255   0.
     0.63027  2944.64860   0.
     5.15669  2954.13690   0.
    33.80274  2940.56791   0.
     1.57076  2956.41210   0.
     9.31000  2947.97928   0.
     9.87726  2933.53233   0.
    53.60824  2932.85261   0.
    40.63972  2936.89193   0.
    13.47285  2946.23828   0.
    37.68088  2934.75035   0.
    46.32767  2931.88185   0.
    18.64740  2941.16071   0.
    13.09413  2950.32980   0.
    18.01744  2935.92389   0.
     0.55332  2948.73049   0.
     5.35766  2947.55011   0.
    42.44669  2933.52960   0.
    57.75733  2932.24094   0.
    23.68300  2931.83870   0.
    19.94397  2947.74183   0.
    61.81887  2931.15328   0.
[...]
POINT_DATA      1414
CELL_DATA      2568
SCALARS Resistivity(ohm.m) double 1
LOOKUP_TABLE default
          1174.74872          1840.86546          2550.61015          1130.96452           515.03638          2402.33123          1185.52203          1392.44763          1663.07307          2265.76798           792.39464          2195.99357           623.92565          2259.28324          2235.90312          1929.92769          1625.07801           480.91448           477.37118          2328.27659          1113.09117          2018.46616          1287.96309           605.91327          1936.83320           512.09472           273.79074          2357.95209          2189.29583          2543.93207           496.97312           511.86175          1740.76513           393.17810           384.04803          1574.54086           702.19160           990.91673          1237.04707          1433.57865          1834.26512           700.50055           474.32925          2275.82372           348.82585           412.15118          2866.40092           849.53926           639.17865           874.84004          2417.99612          1909.34543          1025.35421          1612.93802          2397.85783           953.88306           377.31159          2491.00936           429.59835          1099.90583           543.35859          2148.51777           477.30880          1912.93041           280.99764          1566.50965          2243.60222          2204.02351           304.57881           748.73585           491.30144           747.78102          2067.25681           416.49701           331.21563          2853.83205          1469.53553           480.96004           335.12694          2653.27221          2479.25772          1349.89990           415.41622           421.75999          2088.94587           818.30392           351.51724          2093.78237           817.69793          2043.68151          1083.88653           374.24734          2455.28410           380.37295          1710.04857          2034.52976           595.96121          1230.26369          2171.69235          1037.36113          1613.56208           551.54571           661.43090           735.17486           977.43543          1716.11490           503.53828           961.12426          2203.48245          1311.53399           406.55194          1036.42573          2456.82041          1919.86683          2036.99051          1303.17075           966.65453          1553.16991           459.78419           333.83739          2342.26831          1432.02715          2928.04505           766.43880           568.96929          2176.29446          2360.12747          3195.02819          1917.10926          1303.80378          2233.77321          1114.64491          1232.10228          2232.64401           855.03233          2758.01298           405.15674          1698.76394          1039.44404          1358.72134          1667.35513           517.61377           640.23023          1224.58967          1714.95057           583.04267           452.01690          1523.61074          2025.90404           542.73519          2543.31572          1952.13557           955.54061           681.04654          2281.34532           297.64427          1560.69174           406.59673          2196.99352          1284.24218          1172.18321           516.56815          2288.98294           457.06457          2449.59613           561.53233          1319.00148          1766.17920          1925.75146          1787.01042           712.86161           801.62642           726.50010           287.41154           406.66225           891.76091           840.25206          3465.31505          2585.01817          1149.20246          2309.67492          1358.42469          2137.36021           770.33537           553.96118           998.91771           897.50812           676.41958           841.95616          2383.71063          1216.72614          2325.40947           614.02453          2515.07444           285.81666           520.84149          2441.48779          2268.29319          1253.13643           424.87527           291.82617           783.44854          1891.11940          1468.86597          1771.74443          1070.60440          3760.91093          2481.36699           400.67854          2482.53108          1330.87494           621.71683           423.20439           353.46872           582.11226          1207.79247          2286.57845           481.25680          1264.07785           529.78783           825.77125          1340.11427          1129.86751           361.55288           660.64152           665.85129           395.38473           562.68019          1278.05674           336.76416           992.93508          2073.68727          1449.05091          2871.46566          2291.87103          1645.62030          2302.50882          1399.56364          1412.30995          1397.30009          2477.14579           669.42980           988.47328           423.92992          2345.67231           278.26198          1992.49924           474.57542           479.21425          2358.75724           268.60328          2098.04909          1754.96914           707.19836          2123.98110           998.20272           647.58826           746.73447           723.32418          2811.90507           599.01219          2442.55225           528.40620           449.47542           436.81144          1651.32242           376.00650          2457.39755           931.16104          2544.91617           952.93075          2252.84487          2370.35297          2311.43682           446.55455          1692.04989          2424.00512           441.48498           676.76754           654.90226           452.67135          1393.98457           292.17215           966.20790           906.06126          2515.63905           480.32592          2305.93014           641.93298           498.48243           881.43401           322.20242          2257.48376           674.83532          2052.64957          2342.46830          1461.65635           540.01022           458.31240           666.71396           934.46025           440.15658          2340.76403          2450.96464           410.89515          1851.18967          1322.91033          1575.57587          1957.22040           405.09871           710.68966           606.44747           307.06689          2407.47819           766.38586           351.87176           479.77348          1086.40752          2692.09012           461.88099          3195.08142           384.14967           904.95939           468.74544           551.05846          1211.57846           450.74549          1395.12153          1066.02519          2763.40939          1876.80583          2347.99384           523.29808          1595.69041           350.20684           392.86157           608.13978           617.95655          3087.05808           562.36252          2193.38526           445.83281          2280.07513           488.43725           587.62547          1843.70541          1211.77294          1045.91893           445.18021          2265.94570           490.22359          2368.40248           807.13106           391.47171           468.85288          2153.11451           491.15485          1622.42737           328.80219           396.65657           797.01315          1530.24641           905.18971           535.12560          1363.25686           506.59225           376.93223          2385.87185          1831.80485          2578.31943           449.44374          1303.23982          1437.40911           942.93269           308.40590          2551.53793           393.62145           463.79865           446.88273          2090.43879          1385.82397           463.34884          1798.62645          2296.34148           271.73024          1350.73559           586.16351          1331.57123           441.13776          1509.24680           718.72579           343.49700          1441.47240          1254.66868           459.42387           801.39398           581.40295          1250.93279          1773.44420          1007.90544           582.04341           638.43476          1376.59113          1436.92128          1340.86108           898.22765           527.76417           970.00894          2382.49734          1721.72024          1544.68491          2188.86907           985.97096           619.27544          1035.84519          2330.17411           665.96486           837.67951           714.33065          1817.99616           965.99650           382.94546          2237.67412          1425.78894          1307.32502           295.53478          1538.87843           587.24590          1420.59663           528.43366          1360.04094           515.00544           460.70293          1901.00466          1067.41071          1510.30554          1547.91932           655.43535          1918.80715          1193.09863          3492.04050           600.71619          1196.04783          2094.78665          1158.75084          1109.13782          1281.73422          1226.27927          4064.46981           880.16177          3247.10683          1628.17382          1422.57786          1116.52678          1621.91599           859.73251          2142.34504           946.70596          1358.26666           458.09178          2001.93140          1358.13162           909.27291          1262.64552          2387.50675           857.96026           849.01979          1138.94906          1625.65700          1721.38534           778.34025          1906.75444           913.13509           302.23329          2045.97039          3773.86100          1035.73014           412.50743          1500.95261           747.32063           987.52493          1915.97001           518.06133           591.17832          2344.87492          2602.84144          1212.11949           376.25712           667.36503           811.50838          1305.01525          1115.42568          1084.03010          1517.34418           827.75520          1462.54923           795.97842          1094.07050          2477.50536          1875.37620           669.48470           342.06735           610.18705          1299.65529           807.48012          1246.79953          3542.97576          1288.10161           366.66502           487.17402          1240.63004          1232.38874           906.62223           414.53343          3080.03505          1385.13758           377.56981          3210.93321          2257.28796           430.61697          1431.55856          1272.22189          1105.53755          1174.89777          1110.62640           560.32312          1601.14457          1440.52993          1468.19626          1214.99201           724.85600          1769.41208           473.52397          1139.67239           592.08821           448.47419           749.29486          1813.48807          1142.28087           957.18260           461.98581           404.09758          1794.36583          1182.58756          4142.90009          4108.32115          3612.35995          2384.99848          2186.83491          2212.56112          3247.23340          5198.43613           693.09215          4551.17533           482.71357          1115.69738          1410.43345           723.51889          3399.57868          4768.81016          1440.25941           421.11741          2086.79753          2739.33732           804.61394           876.60495          1524.16599          4599.67437          1580.77039          2080.88822           974.47086           680.05213          1416.89278          1629.54819           499.95686          3612.20530           495.44670          1544.74554          5558.00993          4374.98784          1864.01298          4633.34450           287.82637           816.67154           469.08123          2113.15998          2580.27678          1875.70444          3086.72848          1888.77907          2489.96464           733.53634          1564.39390          1239.28833          1908.40904          8707.37432          3790.34985           959.37729          4887.45996          4169.75871           840.34214           655.54461          4870.05764          2722.34770          4684.59250          4647.60851          1556.30455           902.61977           610.45915           564.39267           809.48515          4085.02540          1727.31583          1036.89856          1538.10686           321.06263          1057.33197          1900.05564          3628.06082          1181.95548           955.30013           690.75958           887.00306          1746.48499          1570.31856           955.73763          3567.34711          2863.22284          3372.05338          3697.15542          5836.48110          4172.27236          2755.92462           544.28896          4170.59043          1272.11185          1667.76734           632.62844          1483.13915           910.50279           393.40461          5709.68673          5437.03899          1554.98864          1672.40161          2777.07943          2426.20777          3143.31960          3100.60454           940.54974          1525.32121           624.61584           815.58815           375.65435           498.95753           755.52921           653.91969          2096.41796          4352.94961          3664.56318          1476.16153          2335.34224          1471.63102          1805.70537          8033.24189          4984.43161          2045.41008           389.76299           581.22411          4882.68046           661.76396          3888.27247          4295.39440          1036.56813          2625.90189           757.82401           918.00055          1052.54873          2521.54153          2610.95373          2674.11725           673.71741           484.96920          1143.70780           377.11997           615.38870           430.95223          3921.01614          5481.01972           509.29160          3019.00796           872.04046          2481.74238          1247.39612           681.32304           680.34588           687.61307           690.05029          2046.42225           806.11235          1629.36993           715.57687          2266.30549          1798.43285          4200.70658          2614.51009           765.97676           594.21150           328.35663          3384.34748           801.30232           820.09277          1339.40599          2681.99459           668.59474           843.59989           567.28310          1327.66985          1322.07556          1754.64147          1335.01793           659.14478           766.49557           680.68538          2493.49633          1986.17547          1293.38207          7592.88982          1048.10406           984.27996           924.75265          1890.76213          2580.14691          1430.92324          1631.02347          1810.78230          2697.51618           606.60187          7048.67738          1563.61433          2603.69124           889.01686          1149.74605          4106.14195          2890.99467           780.86658          1164.35545          3668.28556           519.01059           545.77211          1400.65994          2684.04140          5411.04365          1551.26662          7002.06092          1438.21063          1853.26083          1500.30029          1207.66747           452.60786           782.23784          2926.88382           672.74115          4296.31526           671.33564          3274.66262           887.76944           840.66930          1603.34530          2147.04251          3219.58988          5355.56327          2595.50737          1549.40869          1912.48716          1308.77168          5495.82583          7360.41613          1983.83937          1019.05015          2932.94843           671.08105          1120.14926           816.93976          2878.73221          1140.10551           992.92164           559.51323           649.49049          3634.25317          1135.89595           792.08745          5923.60716          4003.80755          2406.12977          1473.40867          7210.51258           807.46169          2801.41231          3060.78422          2287.27982          1267.05370          3086.29434          5445.56415          1840.45712           439.02705           710.13494           871.70390          1963.31847          1884.28631           728.02896           694.69707          6100.56906           830.83673          1205.14143          1938.18018          4193.23100          5303.49363           482.80511          1391.67098           839.92576          1089.22823          1985.27427           748.55362           855.44541          1494.55382           785.83738           647.81288           392.99360           817.07590          3009.44039           479.36047          2915.78469          1789.44768          2105.86700          1524.19489          2023.79731          1531.54302           392.86275          4494.01921          1692.40232          1961.46512          2082.98008          2453.50722          5811.38393          1084.56989          5398.82782           568.08772           680.88350          1642.25373          1162.23789          7486.58438          2458.88822           931.57562          1716.79542          4149.68169          3490.59305           584.27283          5105.10669          1528.32611          2731.66232          1128.59612          3607.65281          4011.15504           480.67977          3440.36577          3912.79038          2700.14431          5851.57222           848.28235           752.15067          1154.75719          2597.18996           503.14272          9582.16701          3796.57277           588.27104          1864.05475          1875.51573          2205.82687           799.14714          1127.87874         13271.66567           677.71812          2497.07577          1441.44268           488.96638           805.71361          2586.47127          5337.26969          5838.05432          1754.03937          2116.83293          2581.12785          4475.26794           716.34961          1494.54475          2472.90369          1899.37454          5489.53511           647.13221          1146.96098          2770.56118           826.94015          3879.42262          2646.18551          6709.62959          2896.18039          1318.52976          1084.48799           643.87142          5618.58582          7188.01579          2137.75619           294.49140           365.48096           863.06991           794.63395          6251.39572          1422.95185          2054.65726          3601.49188          2343.13985          6128.50488          5873.13120           379.48707           587.85826           771.19798          1127.22493           666.85645          4182.48124          4090.38595          1499.11683           722.64941          1016.20910          2394.77399          3670.67329          2638.94478          2137.93631           976.19441          4097.19037          7494.44403           488.47872           623.31211          1781.55789          7411.14504          2123.58388          2969.82032          4594.77388           797.35737          1954.09207          4302.41048           543.59998          1371.64529          1064.61368          6312.46430           942.37618          1670.62909          3042.42843          5098.99453          5214.92754          5938.71741          4830.31460          4313.69975          1853.61420           903.75665          3388.97324         10698.63022           693.52549          2563.87808          2980.64853           296.39293          2270.42718          3648.85886          2781.69557           469.02858          4654.64533           782.27187          3577.65081          4166.46326          1971.63985           758.64776          3078.58754          3879.92117          5405.17463          6081.19342          5393.52940           634.18842           703.45677          1381.78874          4850.79775          1191.28709          2764.68690           944.77292           644.805