# vtk DataFile Version 3.0
Output from R2
ASCII
DATASET UNSTRUCTURED_GRID
POINTS       1414 double
     0.00000  2968.10000   0.
     1.54000  2966.60000   0.
     3.08000  2964.90000   0.
     4.61000  2964.10000   0.
     6.15000  2963.30000   0.
     7.69000  2962.60000   0.
     9.23000  2961.50000   0.
    10.76000  2960.70000   0.
    12.30000  2960.00000   0.
    13.84000  2959.30000   0.
    15.38000  2958.70000   0.
    16.91000  2958.10000   0.
    18.45000  2957.30000   0.
    19.99000  2956.60000   0.
    21.52000  2955.80000   0.
    23.06000  2955.00000   0.
    24.60000  2954.30000   0.
    26.14000  2953.50000   0.
    27.68000  2952.80000   0.
    29.21000  2951.90000   0.
    30.75000  2951.10000   0.
    32.29000  2950.20000   0.
    33.83000  2949.50000   0.
    35.36000  2948.70000   0.
    36.90000  2948.10000   0.
    38.44000  2947.30000   0.
    39.98000  2946.70000   0.
    41.51000  2946.10000   0.
    43.05000  2945.50000   0.
    44.59000  2945.10000   0.
    46.13000  2944.50000   0.
    47.66000  2944.10000   0.
    49.20000  2943.60000   0.
    50.74000  2943.40000   0.
    52.28000  2943.00000   0.
    53.81000  2942.50000   0.
    55.35000  2942.10000   0.
    56.89000  2941.60000   0.
    58.43000  2941.00000   0.
    59.96000  2940.60000   0.
    61.50000  2940.10000   0.
    63.04000  2939.50000   0.
    64.58000  2939.10000   0.
    66.11000  2939.20000   0.
    67.65000  2939.20000   0.
    69.19000  2939.10000   0.
    70.73000  2938.90000   0.
    72.26000  2938.60000   0.
    73.80000  2938.30000   0.
    75.34000  2938.50000   0.
    76.88000  2938.70000   0.
    78.41000  2938.60000   0.
    79.95000  2938.80000   0.
    81.49000  2938.90000   0.
    83.03000  2939.10000   0.
    84.56000  2939.10000   0.
     3.42000  2957.55000   0.
     8.97000  2954.51000   0.
    14.52000  2951.86000   0.
    20.07000  2949.38000   0.
    25.63000  2946.59000   0.
    31.18000  2943.67000   0.
    36.73000  2940.99000   0.
    42.28000  2938.62000   0.
    47.83000  2936.87000   0.
    53.39000  2935.46000   0.
    58.94000  2933.69000   0.
    64.49000  2931.95000   0.
    70.04000  2931.81000   0.
    75.60000  2931.36000   0.
    81.15000  2931.70000   0.
     0.51333  2967.60000   0.
     1.02667  2967.10000   0.
     2.05333  2966.03333   0.
     2.56667  2965.46667   0.
     3.59000  2964.63333   0.
     4.10000  2964.36667   0.
     5.12333  2963.83333   0.
     5.63667  2963.56667   0.
     6.66333  2963.06667   0.
     7.17667  2962.83333   0.
     8.20333  2962.23333   0.
     8.71667  2961.86667   0.
     9.74000  2961.23333   0.
    10.25000  2960.96667   0.
    11.27333  2960.46667   0.
    11.78667  2960.23333   0.
    12.81333  2959.76667   0.
    13.32667  2959.53333   0.
    14.35333  2959.10000   0.
    14.86667  2958.90000   0.
    15.89000  2958.50000   0.
    16.40000  2958.30000   0.
    17.42333  2957.83333   0.
    17.93667  2957.56667   0.
    18.96333  2957.06667   0.
    19.47667  2956.83333   0.
    20.50000  2956.33333   0.
    21.01000  2956.06667   0.
    22.03333  2955.53333   0.
    22.54667  2955.26667   0.
    23.57333  2954.76667   0.
    24.08667  2954.53333   0.
    25.11333  2954.03333   0.
    25.62667  2953.76667   0.
    26.65333  2953.26667   0.
    27.16667  2953.03333   0.
    28.19000  2952.50000   0.
    28.70000  2952.20000   0.
    29.72333  2951.63333   0.
    30.23667  2951.36667   0.
    31.26333  2950.80000   0.
    31.77667  2950.50000   0.
    32.80333  2949.96667   0.
    33.31667  2949.73333   0.
    34.34000  2949.23333   0.
    34.85000  2948.96667   0.
    35.87333  2948.50000   0.
    36.38667  2948.30000   0.
    37.41333  2947.83333   0.
    37.92667  2947.56667   0.
    38.95333  2947.10000   0.
    39.46667  2946.90000   0.
    40.49000  2946.50000   0.
    41.00000  2946.30000   0.
    42.02333  2945.90000   0.
    42.53667  2945.70000   0.
    43.56333  2945.36667   0.
    44.07667  2945.23333   0.
    45.10333  2944.90000   0.
    45.61667  2944.70000   0.
    46.64000  2944.36667   0.
    47.15000  2944.23333   0.
    48.17333  2943.93333   0.
    48.68667  2943.76667   0.
    49.71333  2943.53333   0.
    50.22667  2943.46667   0.
    51.25333  2943.26667   0.
    51.76667  2943.13333   0.
    52.79000  2942.83333   0.
    53.30000  2942.66667   0.
    54.32333  2942.36667   0.
    54.83667  2942.23333   0.
    55.86333  2941.93333   0.
    56.37667  2941.76667   0.
    57.40333  2941.40000   0.
    57.91667  2941.20000   0.
    58.94000  2940.86667   0.
    59.45000  2940.73333   0.
    60.47333  2940.43333   0.
    60.98667  2940.26667   0.
    62.01333  2939.90000   0.
    62.52667  2939.70000   0.
    63.55333  2939.36667   0.
    64.06667  2939.23333   0.
    65.34500  2939.15000   0.
    66.88000  2939.20000   0.
    68.42000  2939.15000   0.
    69.70333  2939.03333   0.
    70.21667  2938.96667   0.
    71.24000  2938.80000   0.
    71.75000  2938.70000   0.
    72.77333  2938.50000   0.
    73.28667  2938.40000   0.
    74.31333  2938.36667   0.
    74.82667  2938.43333   0.
    75.85333  2938.56667   0.
    76.36667  2938.63333   0.
    77.64500  2938.65000   0.
    78.92333  2938.66667   0.
    79.43667  2938.73333   0.
    80.72000  2938.85000   0.
    82.00333  2938.96667   0.
    82.51667  2939.03333   0.
    83.79500  2939.10000   0.
     0.08400  2959.57200   0.
     1.19600  2958.89800   0.
     2.30800  2958.22400   0.
     4.53000  2956.94200   0.
     5.64000  2956.33400   0.
     6.75000  2955.72600   0.
     7.86000  2955.11800   0.
    10.35750  2953.84750   0.
    11.74500  2953.18500   0.
    13.13250  2952.52250   0.
    15.90750  2951.24000   0.
    17.29500  2950.62000   0.
    18.68250  2950.00000   0.
    21.18200  2948.82200   0.
    22.29400  2948.26400   0.
    23.40600  2947.70600   0.
    24.51800  2947.14800   0.
    26.74000  2946.00600   0.
    27.85000  2945.42200   0.
    28.96000  2944.83800   0.
    30.07000  2944.25400   0.
    32.56750  2943.00000   0.
    33.95500  2942.33000   0.
    35.34250  2941.66000   0.
    38.11750  2940.39750   0.
    39.50500  2939.80500   0.
    40.89250  2939.21250   0.
    43.66750  2938.18250   0.
    45.05500  2937.74500   0.
    46.44250  2937.30750   0.
    49.22000  2936.51750   0.
    50.61000  2936.16500   0.
    52.00000  2935.81250   0.
    54.77750  2935.01750   0.
    56.16500  2934.57500   0.
    57.55250  2934.13250   0.
    60.32750  2933.25500   0.
    61.71500  2932.82000   0.
    63.10250  2932.38500   0.
    65.87750  2931.91500   0.
    67.26500  2931.88000   0.
    68.65250  2931.84500   0.
    71.43000  2931.69750   0.
    72.82000  2931.58500   0.
    74.21000  2931.47250   0.
    76.98750  2931.44500   0.
    78.37500  2931.53000   0.
    79.76250  2931.61500   0.
    82.53750  2931.75500   0.
    83.92500  2931.81000   0.
     6.60134  2937.05984   0.
    20.80435  2932.52560   0.
     3.78758  2946.36592   0.
    15.48523  2940.98228   0.
    29.30091  2934.50364   0.
    23.90594  2939.46561   0.
    40.87322  2931.62711   0.
     1.03219  2951.87344   0.
    10.83406  2946.32292   0.
    20.42668  2943.42459   0.
    48.80952  2930.83467   0.
    35.50309  2935.49258   0.
     7.54365  2949.73854   0.
    28.57967  2939.84283   0.
    15.90963  2945.83181   0.
    44.30452  2933.27820   0.
    -0.12722  2955.42655   0.
    24.47411  2943.04615   0.
     4.45051  2952.86019   0.
    40.01017  2935.22543   0.
    52.75593  2931.58993   0.
    13.75183  2934.27842   0.
    32.31862  2938.44653   0.
     0.40990  2931.04902   0.
    19.20708  2946.27332   0.
    57.19103  2930.55709   0.
    -0.97178  2947.27328   0.
    19.39705  2939.49643   0.
    11.08068  2950.12444   0.
    32.86215  2930.47012   0.
     7.41320  2941.82707   0.
    13.76382  2948.77946   0.
    27.17579  2942.79365   0.
     7.27112  2952.68663   0.
     2.71547  2954.94653   0.
    22.91159  2945.17994   0.
     2.00816  2941.86911   0.
    24.73355  2934.79062   0.
    47.86753  2934.00196   0.
    50.62083  2933.29089   0.
    60.15732  2930.28185   0.
    37.65425  2937.53830   0.
    44.64836  2929.77041   0.
    10.93416  2939.02064   0.
     4.26476  2949.76242   0.
    36.78915  2931.78219   0.
     7.36345  2946.13476   0.
    30.92470  2941.06806   0.
     6.19921  2931.10091   0.
    35.16618  2938.51604   0.
    16.36294  2929.87801   0.
    13.43632  2943.77014   0.
    42.64967  2935.50406   0.
    26.89596  2931.23775   0.
     1.59760  2936.73753   0.
    17.19200  2948.13905   0.
    -0.61497  2957.60981   0.
    26.49360  2937.36117   0.
     9.56799  2951.50953   0.
    17.55858  2943.77119   0.
    55.26825  2932.33039   0.
    22.03247  2936.46128   0.
    16.10828  2937.24515   0.
    22.48452  2941.40733   0.
    20.86327  2946.43955   0.
    29.71126  2937.35408   0.
    32.14062  2935.59882   0.
    45.26358  2935.44707   0.
    29.19256  2942.39482   0.
    25.22337  2944.48902   0.
    25.77440  2940.40763   0.
     5.12787  2951.33100   0.
     9.72036  2943.07255   0.
     0.63027  2944.64860   0.
     5.15669  2954.13690   0.
    33.80274  2940.56791   0.
     1.57076  2956.41210   0.
     9.31000  2947.97928   0.
     9.87726  2933.53233   0.
    53.60824  2932.85261   0.
    40.63972  2936.89193   0.
    13.47285  2946.23828   0.
    37.68088  2934.75035   0.
    46.32767  2931.88185   0.
    18.64740  2941.16071   0.
    13.09413  2950.32980   0.
    18.01744  2935.92389   0.
     0.55332  2948.73049   0.
     5.35766  2947.55011   0.
    42.44669  2933.52960   0.
    57.75733  2932.24094   0.
    23.68300  2931.83870   0.
    19.94397  2947.74183   0.
    61.81887  2931.15328   0.
[...]
POINT_DATA      1414
CELL_DATA      2568
SCALARS Resistivity(ohm.m) double 1
LOOKUP_TABLE default
          1190.07706          1775.97653          2388.03754          1148.35748           513.77768          2250.74624          1301.23482          1439.84168          1752.52588          1945.31127           772.34821          1878.95160           573.14425          2400.87472          2384.73484          1743.03882          1649.05409           439.89982           496.51166          2375.83219          1235.77303          1762.65760          1317.88631           605.87050          1951.79683           510.04166           244.14845          2206.15632          2340.59369          2280.45314           510.16742           507.51924          1707.65515           383.13197           346.40266          1610.30518           736.15502           976.21203          1275.66792          1515.86535          1942.61178           672.51958           471.51309          2437.14210           330.54096           400.54268          2957.19076           828.61778           592.58238           980.68176          2538.73931          1965.86973          1032.58668          1663.50418          2195.43213           936.32476           348.56237          2223.09062           467.56376          1106.39216           524.30326          2249.69195           434.82446          1706.88472           254.03784          1649.56007          2144.08614          1928.26191           276.83955           737.56368           486.79908           802.56078          2195.58213           390.40076           296.31973          2926.00656          1431.13184           440.03223           314.54779          2775.80574          2612.73477          1394.04683           452.94520           415.49927          2166.65302           807.95770           325.68339          2236.57708           904.11857          1830.70543          1083.57839           362.02242          2261.15269           344.68116          1731.87182          2134.09161           556.44213          1231.81935          2306.26486          1032.29714          1554.88397           534.02812           629.55630           701.17332          1016.44496          1799.13568           509.31803           955.46541          2046.92653          1301.93679           365.49514          1152.05114          2603.55677          1731.96882          2168.99500          1370.06241          1077.60363          1570.36583           466.85911           304.39162          2336.98709          1412.87678          2998.10823           720.50474           523.28828          2110.47643          2516.27035          3211.67972          1699.23956          1389.47668          2037.08786          1139.20512          1284.31209          2343.99896           822.98996          2848.85869           365.64612          1759.98533          1039.97247          1426.79709          1631.39522           514.96226           616.20948          1327.54821          1717.97572           560.31395           479.23500          1497.04293          2019.32991           542.56238          2237.02296          2038.72966           939.21237           676.48037          2318.00740           266.60502          1515.12472           386.87912          2352.48267          1334.13495          1183.17594           519.37545          2437.65023           484.87709          2145.58568           533.31763          1415.70523          1695.46451          2045.19376          1802.17509           702.93110           758.96812           690.78462           257.55134           435.43136           949.34700           825.70717          3409.50993          2708.74510          1150.68055          2280.93174          1372.12835          1996.82131           729.78098           528.41588           995.68343           885.33519           654.97033           877.34872          2540.71834          1264.31559          2476.38751           608.60326          2658.12745           258.82805           526.91180          2585.66374          2003.63071          1263.97181           437.81051           265.27000           838.08061          1692.92586          1501.86599          1669.12114          1080.36889          3657.72739          2199.72166           408.21714          2140.41202          1360.16818           588.13043           446.06680           320.21043           574.49197          1225.84041          2447.84652           474.92813          1267.63180           534.26684           899.65625          1324.21559          1131.75465           324.85491           610.69418           656.29509           370.37574           560.94203          1346.29739           333.58076          1069.48519          1903.20946          1435.12187          2940.36459          2368.37140          1550.39718          2410.99140          1388.21034          1379.96271          1399.93032          2626.15756           620.21785           988.62800           405.55097          2490.04654           246.68033          1839.41346           496.29186           435.96143          2030.19369           239.07429          1864.59655          1602.91428           691.02107          2033.92015           983.69550           608.42950           725.87635           673.23143          2895.11430           551.34924          2105.61888           483.13225           440.84852           471.82722          1540.11406           343.40443          2316.46490           925.77464          2280.67243          1011.91301          1940.90561          2519.32236          2232.08654           438.68850          1623.86666          2090.83510           424.75163           686.13889           624.88566           430.18212          1448.93530           259.10380           946.23133           917.15043          2395.82230           490.56278          2383.19827           589.90437           465.94960           957.17694           285.71233          2356.18584           664.41959          1992.32008          2300.28143          1416.78806           537.32003           443.60975           652.22780          1050.50074           469.44196          2452.52634          2602.55682           389.25959          1938.24058          1363.81357          1567.21862          2076.00192           373.06321           698.19485           554.59237           284.45250          2318.29484           772.90638           313.70872           498.56334          1158.47154          2796.46698           456.79637          3194.19600           411.35944           950.43740           445.46479           553.99719          1248.32058           480.92888          1458.41616          1083.10380          2860.90140          1766.62285          2142.51080           516.29367          1504.07663           356.79894           417.16410           602.57159           576.05350          3109.67074           558.93995          2224.94167           404.77000          2107.59548           450.64087           571.19832          1908.13537          1212.78332          1076.66963           476.63645          2208.24108           446.92178          2528.03334           786.33514           350.51667           485.78356          2150.56943           504.09452          1523.62901           313.53419           395.16209           829.46545          1591.76003           899.04245           523.08243          1404.15703           490.01146           336.98841          2359.65464          1647.64684          2701.28665           422.55305          1358.25105          1450.79038          1033.06523           291.28203          2688.09139           425.23267           452.64257           414.74380          2113.38194          1401.81394           420.74848          1892.28138          2417.31894           244.60977          1401.68849           547.47626          1331.11451           465.17279          1449.74217           708.05027           340.37101          1491.17920          1365.28560           424.49003           801.38565           569.44366          1322.37137          1821.78258          1029.47108           539.95484           627.39656          1371.32683          1511.80765          1338.38389           873.08242           528.44270           959.34406          2285.68277          1602.93810          1474.91634          2273.92513          1025.47062           630.39746          1159.33276          2426.03706           653.54147           885.06669           668.34407          1644.51405           989.83933           393.81489          2247.87473          1390.25014          1302.33487           272.84044          1537.07193           542.07968          1450.39973           483.90128          1346.88080           470.76339           420.60463          1850.35427          1061.78244          1503.72796          1484.55112           610.66230          2017.32420          1287.67539          3433.18520           592.62700          1223.28198          2013.51350          1192.03566          1109.94309          1344.36629          1254.28793          3953.43544           857.58013          3240.01826          1546.54862          1429.56343          1217.46936          1573.22317           823.71823          2284.55112           936.05178          1343.75373           422.63634          1922.01739          1364.06725           893.95944          1305.05162          2110.37936           824.46652           864.38289          1190.04806          1616.09632          1589.02379           851.90567          1855.50271           884.60844           279.52178          1918.77381          3689.64323          1068.86153           452.70116          1448.81702           699.20738          1109.97079          1817.80963           526.29228           542.15522          2048.73763          2726.17855          1251.71086           336.20451           666.95077           768.51375          1323.69694          1151.88768          1107.37782          1589.81030           802.44732          1533.88390           764.51133          1092.80538          2613.12105          1869.21507           633.90083           304.70953           558.88889          1292.65333           771.73253          1246.64413          3508.81715          1297.53894           367.79952           502.50144          1263.09802          1236.84160           880.22277           406.75832          3108.75944          1457.84153           373.20874          3225.72438          2307.25513           404.08884          1399.69353          1291.48082          1116.78872          1198.87886          1116.20937           554.22327          1514.02019          1505.46593          1527.49604          1282.01515           699.91046          1616.95506           435.54768          1222.17785           582.39709           416.14569           718.14948          1673.47294          1147.91515           951.85549           428.00127           391.20670          1687.39600          1191.23175          4119.18190          4162.57297          3653.21784          2304.88123          2061.24459          2171.24919          3356.33052          5113.35455           668.80181          4414.46943           505.05204          1115.84257          1375.97748           686.60800          3395.85766          4803.53578          1399.27685           479.50721          2108.37055          2748.61608           782.48219           943.61942          1523.71695          4424.55779          1435.31870          1972.11560           927.58298           655.64333          1415.91310          1683.91791           522.70481          3615.82327           514.02117          1565.54522          5476.87802          4318.02318          1678.95112          4653.06041           270.98314           829.44571           497.07114          2143.42285          2669.66677          1799.26987          3093.53411          1909.25999          2487.19895           740.50783          1538.06291          1339.04439          1935.68232          8929.36169          3855.66495           951.44721          4632.96867          4091.11930           814.85143           643.81817          4960.28024          2672.86779          4557.17627          4602.42215          1590.09646           927.42357           606.26375           586.98822           846.82235          4224.29019          1677.90281          1046.31513          1625.82853           315.02970          1045.14847          1880.77572          3697.65549          1071.74330           914.41067           679.74451           875.58620          1731.37144          1598.21176           874.05270          3618.60236          2832.13278          3390.93190          3682.74551          5568.47897          4315.68457          2727.71212           618.13004          4041.82764          1276.74663          1643.64622           647.08516          1506.02673           963.33250           392.43299          5607.22573          5207.99380          1565.61568          1694.87310          2818.34187          2505.11834          3244.12857          2813.06740           962.48191          1492.88586           635.36788           883.51174           409.32535           523.90498           751.93610           607.54949          2124.56311          4496.33945          3667.87437          1517.12527          2358.67005          1438.62566          1829.57343          7879.60774          4797.85925          2080.64632           420.85503           567.67980          4832.45770           757.57460          4004.52695          4629.11596          1029.42823          2603.55274           729.86999           953.70103          1039.33689          2586.54094          2714.49482          2642.45690           650.41427           566.48061          1095.02677           346.30773           651.41885           492.55836          3961.53699          5421.52198           522.56354          2964.15083           994.29081          2454.44812          1182.76092           711.20940           662.33173           757.11921           698.47835          2087.39111           802.34100          1663.79805           744.80922          2326.86456          1868.16749          4469.20764          2492.92986           761.93125           608.90421           312.46061          3362.71536           762.50870           779.60066          1322.62512          2756.72932           763.14718           798.48829           566.56117          1327.76636          1355.16915          1816.21158          1399.69610           657.74631           721.06159           691.48038          2532.08852          1785.51519          1283.08402          7532.50578          1039.46492           994.21225           895.64932          1889.74440          2483.29716          1523.80320          1668.16539          2026.74614          2657.18093           530.27215          7031.97430          1624.06317          2660.95279           893.47645          1103.61180          4201.26640          2760.77929           761.57753          1149.58637          3733.30244           523.77944           530.71861          1368.74315          2579.87657          5362.75173          1536.55069          6757.84704          1482.14205          1861.16032          1561.47233          1145.59751           486.46588           758.50002          2927.66817           674.52481          4233.15468           642.09632          3336.77836           828.18375           921.36362          1536.93429          2140.81487          3232.80960          5228.68366          2565.48397          1486.05147          1846.11901          1282.66970          5396.14697          7290.23158          2020.98400          1042.86863          2919.76428           674.29851          1078.91866           913.44417          2947.66388          1088.35399          1007.12258           561.90033           647.22093          3931.55568          1164.72112           731.95179          5966.16427          4124.48264          2195.39032          1491.50864          7347.51689           868.53200          2854.13348          3262.05621          2282.22904          1298.21779          3071.76567          5477.08061          1756.10672           470.07673           716.34666           847.02319          1903.27720          1813.28364           739.85665           723.01663          6283.90192           811.49946          1258.21439          1816.59435          4215.68209          5396.28356           529.41465          1337.61884           880.82334          1053.37965          1878.80449           780.49526           825.85901          1518.47024           758.17464           621.60593           436.66196           842.30464          3062.45688           506.63864          2993.99259          1707.28266          2044.76097          1539.06476          1957.19249          1612.19390           443.39276          4608.57061          1519.63679          2016.84436          2096.94345          2245.78367          5819.53530          1084.82953          5101.08869           542.40397           646.80057          1564.25306          1103.63414          7321.71019          2560.29143           926.37583          1590.76077          4265.56647          3561.45905           618.32026          4820.57780          1412.77152          2816.15788          1064.97032          3516.28599          3994.55027           509.64979          3419.90373          3877.33350          2632.96934          5920.83208           801.11870           776.76512          1100.21368          2526.98518           511.61326          9777.97171          3725.19730           623.32958          1828.91029          1920.47281          2116.71190           747.51805          1085.53165         13821.21708           732.15882          2496.41745          1453.68437           501.57429           810.77205          2731.38460          5568.74699          6022.82284          1874.99507          2116.56479          2547.15356          4303.01024           729.62631          1506.46948          2297.76852          1953.59343          5622.45722           653.06891          1092.86861          2747.09109           858.53328          3810.37237          2588.63400          6381.12471          3399.34737          1407.10933          1108.60964           648.69959          5798.93826          6883.67387          2081.19667           249.27587           369.34281           816.28249           930.33428          6030.16167          1365.27987          1977.62073          3623.76048          2340.00777          6170.22535          5793.37208           384.21857           560.17989           809.26360          1241.68952           631.84204          4176.91210          4150.97559          1433.33314           790.92969          1027.82340          2343.00733          3746.58836          2600.03109          2185.99738           998.06516          3998.86277          7510.45626           489.45693           684.91770          1849.63006          7304.66041          2311.17427          3019.04742          4642.65250           864.14064          2016.45609          4149.57285           524.03515          1468.19831          1111.41234          5971.43504           915.51559          1735.56935          3099.91675          5053.07713          5199.65385          5624.82924          4766.85671          4339.51592          1736.83755           923.52985          3370.19002         10852.98557           658.07199          2678.35233          2929.08416           266.01302          2238.95970          3712.33353          2946.95698           461.93495          4599.94160           812.12829          3655.58282          4557.15664          1798.33721           767.64092          3088.19502          3770.12893          5498.89105          5942.80379          5085.13419           639.85386           679.77050          1383.50339          5019.62716          1163.37628          2890.11697          1041.40795           620.132