# vtk DataFile Version 3.0
Output from R2
ASCII
DATASET UNSTRUCTURED_GRID
POINTS       1414 double
     0.00000  2968.10000   0.
     1.54000  2966.60000   0.
     3.08000  2964.90000   0.
     4.61000  2964.10000   0.
     6.15000  2963.30000   0.
     7.69000  2962.60000   0.
     9.23000  2961.50000   0.
    10.76000  2960.70000   0.
    12.30000  2960.00000   0.
    13.84000  2959.30000   0.
    15.38000  2958.70000   0.
    16.91000  2958.10000   0.
    18.45000  2957.30000   0.
    19.99000  2956.60000   0.
    21.52000  2955.80000   0.
    23.06000  2955.00000   0.
    24.60000  2954.30000   0.
    26.14000  2953.50000   0.
    27.68000  2952.80000   0.
    29.21000  2951.90000   0.
    30.75000  2951.10000   0.
    32.29000  2950.20000   0.
    33.83000  2949.50000   0.
    35.36000  2948.70000   0.
    36.90000  2948.10000   0.
    38.44000  2947.30000   0.
    39.98000  2946.70000   0.
    41.51000  2946.10000   0.
    43.05000  2945.50000   0.
    44.59000  2945.10000   0.
    46.13000  2944.50000   0.
    47.66000  2944.10000   0.
    49.20000  2943.60000   0.
    50.74000  2943.40000   0.
    52.28000  2943.00000   0.
    53.81000  2942.50000   0.
    55.35000  2942.10000   0.
    56.89000  2941.60000   0.
    58.43000  2941.00000   0.
    59.96000  2940.60000   0.
    61.50000  2940.10000   0.
    63.04000  2939.50000   0.
    64.58000  2939.10000   0.
    66.11000  2939.20000   0.
    67.65000  2939.20000   0.
    69.19000  2939.10000   0.
    70.73000  2938.90000   0.
    72.26000  2938.60000   0.
    73.80000  2938.30000   0.
    75.34000  2938.50000   0.
    76.88000  2938.70000   0.
    78.41000  2938.60000   0.
    79.95000  2938.80000   0.
    81.49000  2938.90000   0.
    83.03000  2939.10000   0.
    84.56000  2939.10000   0.
     3.42000  2957.55000   0.
     8.97000  2954.51000   0.
    14.52000  2951.86000   0.
    20.07000  2949.38000   0.
    25.63000  2946.59000   0.
    31.18000  2943.67000   0.
    36.73000  2940.99000   0.
    42.28000  2938.62000   0.
    47.83000  2936.87000   0.
    53.39000  2935.46000   0.
    58.94000  2933.69000   0.
    64.49000  2931.95000   0.
    70.04000  2931.81000   0.
    75.60000  2931.36000   0.
    81.15000  2931.70000   0.
     0.51333  2967.60000   0.
     1.02667  2967.10000   0.
     2.05333  2966.03333   0.
     2.56667  2965.46667   0.
     3.59000  2964.63333   0.
     4.10000  2964.36667   0.
     5.12333  2963.83333   0.
     5.63667  2963.56667   0.
     6.66333  2963.06667   0.
     7.17667  2962.83333   0.
     8.20333  2962.23333   0.
     8.71667  2961.86667   0.
     9.74000  2961.23333   0.
    10.25000  2960.96667   0.
    11.27333  2960.46667   0.
    11.78667  2960.23333   0.
    12.81333  2959.76667   0.
    13.32667  2959.53333   0.
    14.35333  2959.10000   0.
    14.86667  2958.90000   0.
    15.89000  2958.50000   0.
    16.40000  2958.30000   0.
    17.42333  2957.83333   0.
    17.93667  2957.56667   0.
    18.96333  2957.06667   0.
    19.47667  2956.83333   0.
    20.50000  2956.33333   0.
    21.01000  2956.06667   0.
    22.03333  2955.53333   0.
    22.54667  2955.26667   0.
    23.57333  2954.76667   0.
    24.08667  2954.53333   0.
    25.11333  2954.03333   0.
    25.62667  2953.76667   0.
    26.65333  2953.26667   0.
    27.16667  2953.03333   0.
    28.19000  2952.50000   0.
    28.70000  2952.20000   0.
    29.72333  2951.63333   0.
    30.23667  2951.36667   0.
    31.26333  2950.80000   0.
    31.77667  2950.50000   0.
    32.80333  2949.96667   0.
    33.31667  2949.73333   0.
    34.34000  2949.23333   0.
    34.85000  2948.96667   0.
    35.87333  2948.50000   0.
    36.38667  2948.30000   0.
    37.41333  2947.83333   0.
    37.92667  2947.56667   0.
    38.95333  2947.10000   0.
    39.46667  2946.90000   0.
    40.49000  2946.50000   0.
    41.00000  2946.30000   0.
    42.02333  2945.90000   0.
    42.53667  2945.70000   0.
    43.56333  2945.36667   0.
    44.07667  2945.23333   0.
    45.10333  2944.90000   0.
    45.61667  2944.70000   0.
    46.64000  2944.36667   0.
    47.15000  2944.23333   0.
    48.17333  2943.93333   0.
    48.68667  2943.76667   0.
    49.71333  2943.53333   0.
    50.22667  2943.46667   0.
    51.25333  2943.26667   0.
    51.76667  2943.13333   0.
    52.79000  2942.83333   0.
    53.30000  2942.66667   0.
    54.32333  2942.36667   0.
    54.83667  2942.23333   0.
    55.86333  2941.93333   0.
    56.37667  2941.76667   0.
    57.40333  2941.40000   0.
    57.91667  2941.20000   0.
    58.94000  2940.86667   0.
    59.45000  2940.73333   0.
    60.47333  2940.43333   0.
    60.98667  2940.26667   0.
    62.01333  2939.90000   0.
    62.52667  2939.70000   0.
    63.55333  2939.36667   0.
    64.06667  2939.23333   0.
    65.34500  2939.15000   0.
    66.88000  2939.20000   0.
    68.42000  2939.15000   0.
    69.70333  2939.03333   0.
    70.21667  2938.96667   0.
    71.24000  2938.80000   0.
    71.75000  2938.70000   0.
    72.77333  2938.50000   0.
    73.28667  2938.40000   0.
    74.31333  2938.36667   0.
    74.82667  2938.43333   0.
    75.85333  2938.56667   0.
    76.36667  2938.63333   0.
    77.64500  2938.65000   0.
    78.92333  2938.66667   0.
    79.43667  2938.73333   0.
    80.72000  2938.85000   0.
    82.00333  2938.96667   0.
    82.51667  2939.03333   0.
    83.79500  2939.10000   0.
     0.08400  2959.57200   0.
     1.19600  2958.89800   0.
     2.30800  2958.22400   0.
     4.53000  2956.94200   0.
     5.64000  2956.33400   0.
     6.75000  2955.72600   0.
     7.86000  2955.11800   0.
    10.35750  2953.84750   0.
    11.74500  2953.18500   0.
    13.13250  2952.52250   0.
    15.90750  2951.24000   0.
    17.29500  2950.62000   0.
    18.68250  2950.00000   0.
    21.18200  2948.82200   0.
    22.29400  2948.26400   0.
    23.40600  2947.70600   0.
    24.51800  2947.14800   0.
    26.74000  2946.00600   0.
    27.85000  2945.42200   0.
    28.96000  2944.83800   0.
    30.07000  2944.25400   0.
    32.56750  2943.00000   0.
    33.95500  2942.33000   0.
    35.34250  2941.66000   0.
    38.11750  2940.39750   0.
    39.50500  2939.80500   0.
    40.89250  2939.21250   0.
    43.66750  2938.18250   0.
    45.05500  2937.74500   0.
    46.44250  2937.30750   0.
    49.22000  2936.51750   0.
    50.61000  2936.16500   0.
    52.00000  2935.81250   0.
    54.77750  2935.01750   0.
    56.16500  2934.57500   0.
    57.55250  2934.13250   0.
    60.32750  2933.25500   0.
    61.71500  2932.82000   0.
    63.10250  2932.38500   0.
    65.87750  2931.91500   0.
    67.26500  2931.88000   0.
    68.65250  2931.84500   0.
    71.43000  2931.69750   0.
    72.82000  2931.58500   0.
    74.21000  2931.47250   0.
    76.98750  2931.44500   0.
    78.37500  2931.53000   0.
    79.76250  2931.61500   0.
    82.53750  2931.75500   0.
    83.92500  2931.81000   0.
     6.60134  2937.05984   0.
    20.80435  2932.52560   0.
     3.78758  2946.36592   0.
    15.48523  2940.98228   0.
    29.30091  2934.50364   0.
    23.90594  2939.46561   0.
    40.87322  2931.62711   0.
     1.03219  2951.87344   0.
    10.83406  2946.32292   0.
    20.42668  2943.42459   0.
    48.80952  2930.83467   0.
    35.50309  2935.49258   0.
     7.54365  2949.73854   0.
    28.57967  2939.84283   0.
    15.90963  2945.83181   0.
    44.30452  2933.27820   0.
    -0.12722  2955.42655   0.
    24.47411  2943.04615   0.
     4.45051  2952.86019   0.
    40.01017  2935.22543   0.
    52.75593  2931.58993   0.
    13.75183  2934.27842   0.
    32.31862  2938.44653   0.
     0.40990  2931.04902   0.
    19.20708  2946.27332   0.
    57.19103  2930.55709   0.
    -0.97178  2947.27328   0.
    19.39705  2939.49643   0.
    11.08068  2950.12444   0.
    32.86215  2930.47012   0.
     7.41320  2941.82707   0.
    13.76382  2948.77946   0.
    27.17579  2942.79365   0.
     7.27112  2952.68663   0.
     2.71547  2954.94653   0.
    22.91159  2945.17994   0.
     2.00816  2941.86911   0.
    24.73355  2934.79062   0.
    47.86753  2934.00196   0.
    50.62083  2933.29089   0.
    60.15732  2930.28185   0.
    37.65425  2937.53830   0.
    44.64836  2929.77041   0.
    10.93416  2939.02064   0.
     4.26476  2949.76242   0.
    36.78915  2931.78219   0.
     7.36345  2946.13476   0.
    30.92470  2941.06806   0.
     6.19921  2931.10091   0.
    35.16618  2938.51604   0.
    16.36294  2929.87801   0.
    13.43632  2943.77014   0.
    42.64967  2935.50406   0.
    26.89596  2931.23775   0.
     1.59760  2936.73753   0.
    17.19200  2948.13905   0.
    -0.61497  2957.60981   0.
    26.49360  2937.36117   0.
     9.56799  2951.50953   0.
    17.55858  2943.77119   0.
    55.26825  2932.33039   0.
    22.03247  2936.46128   0.
    16.10828  2937.24515   0.
    22.48452  2941.40733   0.
    20.86327  2946.43955   0.
    29.71126  2937.35408   0.
    32.14062  2935.59882   0.
    45.26358  2935.44707   0.
    29.19256  2942.39482   0.
    25.22337  2944.48902   0.
    25.77440  2940.40763   0.
     5.12787  2951.33100   0.
     9.72036  2943.07255   0.
     0.63027  2944.64860   0.
     5.15669  2954.13690   0.
    33.80274  2940.56791   0.
     1.57076  2956.41210   0.
     9.31000  2947.97928   0.
     9.87726  2933.53233   0.
    53.60824  2932.85261   0.
    40.63972  2936.89193   0.
    13.47285  2946.23828   0.
    37.68088  2934.75035   0.
    46.32767  2931.88185   0.
    18.64740  2941.16071   0.
    13.09413  2950.32980   0.
    18.01744  2935.92389   0.
     0.55332  2948.73049   0.
     5.35766  2947.55011   0.
    42.44669  2933.52960   0.
    57.75733  2932.24094   0.
    23.68300  2931.83870   0.
    19.94397  2947.74183   0.
    61.81887  2931.15328   0.
[...]
POINT_DATA      1414
CELL_DATA      2568
SCALARS Resistivity(ohm.m) double 1
LOOKUP_TABLE default
          1179.82946          1769.20749          2435.55258          1135.35017           564.11366          2277.20933          1273.35298          1457.37472          1648.52954          2102.74132           776.83044          2062.06968           599.73565          2247.16075          2224.94841          1882.50444          1590.01730           436.09601           498.97689          2350.25145          1204.66356          1925.82563          1279.62574           601.41954          1877.24053           516.83298           271.87293          2225.15575          2190.37904          2384.85658           522.63275           519.09728          1685.03471           380.24341           365.42620          1601.79328           683.68038           990.35110          1232.08746          1479.68760          1821.44211           670.28095           472.23669          2277.15905           340.83254           404.44897          2875.11416           840.07129           606.31844           930.72660          2458.77421          1866.56162          1042.82635          1585.31921          2347.03993           951.47230           363.65202          2322.64198           442.50424          1120.44484           583.99529          2112.28809           433.54213          1856.36734           277.26836          1553.01377          2125.31582          2051.66495           295.39211           744.61066           502.61383           749.84550          2048.25352           402.94435           315.48471          2836.64744          1454.10532           433.64896           327.06356          2676.17484          2513.93928          1418.48902           427.66921           423.65342          2043.58944           814.18961           340.27176          2090.65127           851.58956          1924.17269          1089.46789           367.92901          2315.65677           358.51001          1717.31753          2002.15322           551.98736          1254.32863          2151.76259          1039.30943          1572.29528           581.77963           670.02941           711.06628          1011.26090          1695.33151           549.86927           966.88766          2166.85929          1334.99340           379.77739          1121.39423          2462.73801          1828.26402          2024.89389          1295.17454          1039.67972          1521.72973           463.98026           322.17571          2321.44646          1416.54307          2913.14591           757.93056           516.84715          2072.80073          2366.45063          3147.56842          1839.41338          1379.98930          2087.78536          1118.21237          1226.48486          2205.70498           845.32785          2752.60862           377.17957          1670.29888          1041.21785          1348.46522          1618.70844           554.06258           651.74243          1311.42561          1668.67402           603.87568           472.87941          1493.04595          1952.55030           530.19518          2388.54242          1918.68801           956.12471           647.25412          2240.63954           288.48914          1589.66129           381.42423          2194.00581          1275.06589          1202.27311           548.66059          2296.83212           486.12147          2266.36036           596.49891          1387.63935          1767.61048          1915.49093          1738.58484           685.33568           789.05545           728.10563           279.06064           416.50770           921.81504           836.63450          3390.34421          2589.41952          1163.36271          2239.60665          1413.96584          2015.74715           766.61236           583.24027           998.55266           894.50131           682.48277           852.88818          2388.73164          1212.51410          2325.74137           617.38083          2534.05295           280.06924           529.14960          2462.33765          2105.39504          1255.39711           430.23273           285.32858           793.09219          1813.37587          1445.51206          1765.92081          1073.57438          3672.28036          2373.10361           402.79556          2312.85551          1318.43044           634.55181           433.54360           338.70024           563.89365          1210.61592          2285.16828           490.93351          1269.56480           552.15329           853.43720          1355.39468          1140.09811           344.65119           656.77680           664.85269           377.69422           565.52624          1272.01133           335.68035          1048.25230          2028.84413          1428.17711          2866.24285          2288.11469          1649.14207          2311.43816          1440.94748          1422.66574          1380.81573          2486.63185           648.34131           987.91885           413.90976          2352.88873           270.82657          1887.79132           512.09596           435.89711          2178.92058           264.83114          2024.00152          1723.06030           708.28555          2016.65259          1000.31823           606.13151           746.88943           713.62748          2818.00149           604.05355          2258.80133           477.64582           444.30649           453.21348          1640.19111           360.63689          2350.26215           928.58175          2432.79018           992.54764          2127.29570          2379.92779          2208.32753           451.33182          1638.55272          2282.16735           429.92110           644.85449           615.30144           433.17657          1378.83909           282.51494           964.55021           914.33308          2421.64097           488.48369          2326.33319           632.19694           465.07614           919.71068           307.66637          2232.13352           670.08816          1960.54210          2280.77863          1457.33681           564.62577           449.53197           672.00393          1006.36667           457.72062          2371.71388          2455.57590           379.18741          1824.54309          1310.62164          1539.00761          1941.73802           381.76556           709.48958           598.75613           300.10225          2331.39746           753.47372           334.78847           523.97324          1151.28116          2703.22991           473.13874          3151.33857           390.66240           929.52593           446.08295           565.62701          1209.08353           473.93835          1381.69037          1068.72415          2754.37752          1793.96632          2192.28508           519.33695          1588.28675           350.88996           400.20267           615.85749           626.17700          3047.26670           544.92380          2127.95635           410.70426          2136.65398           440.95495           607.30471          1808.08726          1229.45442          1089.54163           460.64268          2166.08994           445.19440          2371.66368           805.04683           368.66811           481.78510          2073.76316           523.11994          1599.28896           322.62850           394.65032           799.14032          1509.97978           906.35978           527.35593          1348.06943           496.19593           356.53570          2360.36427          1774.00284          2588.24511           421.96199          1293.15966          1415.22697           999.90611           305.09527          2554.46290           402.11897           464.46264           405.67182          2023.56959          1368.85416           423.72251          1778.74790          2293.75018           269.33893          1337.32325           602.88959          1372.16079           454.81887          1520.36558           712.92783           341.18925          1422.77154          1332.51562           427.72406           792.01070           573.50814          1330.10786          1736.09513          1032.42398           599.99584           631.87737          1366.01947          1425.81027          1336.17636           894.07293           523.71477           968.45099          2292.91780          1669.27906          1527.93435          2145.78802          1018.68995           623.03743          1123.95468          2368.46998           627.18371           854.79594           693.06517          1757.26414           987.79475           385.44446          2166.11568          1442.82524          1312.50835           289.84476          1578.80457           597.90094          1400.47330           475.70294          1358.19742           463.31109           422.94478          1894.31547          1075.53470          1480.65048          1524.34939           625.25190          1893.78566          1279.58562          3400.94707           587.55559          1196.94814          2084.53680          1160.29818          1123.92131          1274.01178          1224.59324          4020.28931           876.57537          3187.57383          1588.87847          1476.48935          1201.41054          1644.35346           852.50017          2128.78802           944.45148          1386.43097           415.45335          1909.42327          1346.50601           906.08237          1328.07012          2210.63645           852.67328           852.07783          1196.45041          1650.78130          1675.63279           796.72951          1831.08256           908.22376           299.45470          1938.29772          3723.57164          1069.98918           423.83870          1521.34444           732.03478          1070.22577          1900.39648           530.99170           535.79439          2167.80563          2638.97886          1270.19380           354.13353           627.71787           801.81671          1297.12560          1160.40055          1087.08985          1501.58784           824.72624          1448.64627           793.55558          1101.95891          2489.89977          1814.06275           635.21634           324.86792           607.88263          1311.12247           803.29624          1259.42040          3523.82422          1286.11792           365.70594           503.15365          1288.87447          1241.18468           901.32616           409.68695          3061.27129          1375.42015           374.42863          3202.22531          2210.69485           400.38783          1424.79910          1268.46991          1110.14984          1216.40437          1116.66991           557.99835          1606.59453          1425.48299          1450.23039          1290.56481           727.02413          1741.23314           432.95510          1216.99511           586.30722           411.55260           749.51791          1741.68159          1150.34953           955.38190           425.11586           397.09169          1724.49770          1189.93158          4238.82290          4321.56106          3787.07671          2412.45435          2180.66272          2217.67687          3297.27037          4918.85256           699.60045          4442.67423           482.99958          1076.39567          1361.85325           698.82832          3164.96417          5123.30877          1419.26887           437.44120          2185.54498          2756.78351           781.28712           908.52545          1478.91379          4320.84511          1580.99175          2078.57131           938.89690           657.04523          1356.60289          1553.60330           501.79327          3602.96030           493.89443          1460.96563          5375.37003          4203.45056          1811.22603          4742.92987           291.88333           792.66739           475.37753          2046.38938          2628.99876          1877.14586          3185.02001          1989.74125          2478.38705           711.95046          1570.22476          1313.24086          1821.76612          8342.33853          3859.26557           938.73096          4571.10900          4234.84357           825.26859           624.82811          5158.72136          2748.29994          4396.02883          4672.52398          1476.17390           873.73289           608.36588           573.42001           810.57886          4197.83951          1719.01576          1003.01044          1540.58206           324.68471          1067.91907          1950.47116          3864.74049          1158.71527           936.53241           637.21017           899.20054          1719.52666          1546.46253           919.29534          3741.78252          2694.17403          3352.05012          3827.76494          5393.55042          4057.19050          2822.80062           572.96098          4283.49064          1334.57316          1684.64742           611.54861          1397.41348           894.83287           377.17418          5528.60213          5450.76032          1537.58965          1719.08067          2817.68892          2598.18274          3144.85266          2902.80184           910.49576          1543.39502           652.25253           872.08634           376.78955           509.31638           757.19768           616.44204          2213.68413          4275.41797          3761.87812          1513.79654          2333.18276          1487.48711          1737.71076          8312.93002          4945.30959          2092.85854           397.40647           564.05819          5349.98268           703.29909          3900.74567          4397.52796          1038.71655          2576.59072           758.47481           900.19395          1047.42481          2540.84617          2607.71739          2625.91647           669.72885           505.77109          1166.05073           385.97251           620.47191           444.83960          3960.50151          5509.23226           511.82816          3129.71787           931.35755          2452.81500          1234.53560           698.04650           655.42019           720.84442           693.51928          2114.58830           794.67183          1667.63266           723.35348          2180.61818          1781.09788          4302.41896          2577.57534           786.29607           619.24717           336.61138          3462.29813           787.15368           809.86725          1307.07643          2818.87097           728.36263           807.38242           571.82103          1289.08640          1375.17367          1707.89479          1391.03408           671.61440           746.81314           665.89269          2522.27424          1902.52055          1341.13734          7972.55329          1034.30944          1002.23693           864.52778          1919.23709          2606.20775          1462.42553          1625.43681          1997.08288          2647.51627           576.42271          7450.72253          1631.25592          2645.66960           916.52167          1177.50007          4194.13899          2840.69089           759.50619          1112.09339          3801.29124           551.07598           565.29781          1347.52515          2627.39355          5233.91000          1486.96143          7078.96546          1392.59555          1914.93871          1496.35492          1200.33211           459.82701           771.99395          2961.25760           627.91755          4288.62003           657.93593          3284.78800           899.31577           890.48311          1620.30930          2085.09973          3307.01005          4982.13384          2621.32027          1513.10961          1818.81995          1254.76932          5561.26713          7631.32165          1983.03196          1064.69671          3037.06307           682.84059          1133.81053           834.50445          2929.28134          1151.71479          1008.25755           537.81665           658.19256          3560.60111          1102.67934           758.51964          5749.62008          4035.36216          2229.89360          1449.32243          7027.15902           813.88778          3050.80075          3101.87859          2250.99671          1243.95079          3132.56124          5167.74668          1865.03554           465.56788           700.03099           814.61167          1980.27363          1787.27249           726.73123           723.32452          6046.15865           835.39195          1252.54388          1889.50318          4103.64979          5398.16118           492.57040          1386.20995           849.03783          1058.41726          1966.61595           746.27137           793.11306          1386.92585           759.23505           625.68910           393.53650           816.81763          3065.28282           480.21368          2958.62998          1812.51818          2109.64316          1532.90414          2077.06078          1510.61555           398.51236          4622.51649          1673.30846          1964.32070          2080.73820          2336.58771          5806.63920          1107.30581          5031.03216           580.42712           662.64053          1640.40608          1166.44707          7704.17933          2510.74117           960.91398          1648.81207          4137.50259          3696.75310           605.00007          4946.06867          1466.76137          2923.96045          1084.81999          3523.82392          3773.10911           507.16331          3317.76641          3969.21575          2793.93338          5645.65834           808.08169           733.75478          1157.05574          2523.14885           515.69801          9727.09579          3765.12290           612.76161          1908.00624          1972.56156          2062.83202           770.73205          1146.66136         13849.27209           676.05018          2404.56177          1338.49199           519.67741           810.50025          2683.92774          5306.07468          6315.34443          1859.50644          2123.26578          2434.38765          4396.00413           709.84736          1539.71494          2353.55625          1822.52099          5316.58941           672.29183          1154.83126          2709.21272           818.93290          3832.42831          2829.73567          6519.08046          3256.29699          1381.20376          1052.00182           649.77191          5423.49574          7153.01216          2301.28721           278.94613           350.97504           837.05544           855.75685          6294.30480          1388.53793          1905.46199          3771.58877          2476.33981          6123.05690          5759.61026           380.73973           591.44917           774.55124          1212.23554           655.12113          4070.01135          4270.52948          1468.62221           752.30325          1035.66748          2433.20586          3655.63970          2640.53463          2122.33224           951.77982          4010.62257          7645.96518           511.49212           620.79767          1736.46437          7375.59392          2298.78564          2910.92765          4472.81802           823.03159          1936.27875          4106.71382           531.33616          1416.62017          1041.92903          6333.12043           882.95117          1666.47567          3013.76361          4889.95939          5353.62098          5752.11619          4795.57971          4304.07072          1737.73715           900.87245          3329.76832         10969.42669           669.76889          2593.95549          3123.20479           299.52339          2284.51219          3868.59763          2784.90308           477.47787          4668.35096           759.44874          3725.18752          4005.31178          1937.95179           759.97549          3045.16700          3815.77662          5532.00194          6193.17679          5115.17482           621.83452           705.29918          1421.08113          4862.11634          1252.02573          2945.11976           991.66840           614.819