# vtk DataFile Version 3.0
Output from R2
ASCII
DATASET UNSTRUCTURED_GRID
POINTS       1414 double
     0.00000  2968.10000   0.
     1.54000  2966.60000   0.
     3.08000  2964.90000   0.
     4.61000  2964.10000   0.
     6.15000  2963.30000   0.
     7.69000  2962.60000   0.
     9.23000  2961.50000   0.
    10.76000  2960.70000   0.
    12.30000  2960.00000   0.
    13.84000  2959.30000   0.
    15.38000  2958.70000   0.
    16.91000  2958.10000   0.
    18.45000  2957.30000   0.
    19.99000  2956.60000   0.
    21.52000  2955.80000   0.
    23.06000  2955.00000   0.
    24.60000  2954.30000   0.
    26.14000  2953.50000   0.
    27.68000  2952.80000   0.
    29.21000  2951.90000   0.
    30.75000  2951.10000   0.
    32.29000  2950.20000   0.
    33.83000  2949.50000   0.
    35.36000  2948.70000   0.
    36.90000  2948.10000   0.
    38.44000  2947.30000   0.
    39.98000  2946.70000   0.
    41.51000  2946.10000   0.
    43.05000  2945.50000   0.
    44.59000  2945.10000   0.
    46.13000  2944.50000   0.
    47.66000  2944.10000   0.
    49.20000  2943.60000   0.
    50.74000  2943.40000   0.
    52.28000  2943.00000   0.
    53.81000  2942.50000   0.
    55.35000  2942.10000   0.
    56.89000  2941.60000   0.
    58.43000  2941.00000   0.
    59.96000  2940.60000   0.
    61.50000  2940.10000   0.
    63.04000  2939.50000   0.
    64.58000  2939.10000   0.
    66.11000  2939.20000   0.
    67.65000  2939.20000   0.
    69.19000  2939.10000   0.
    70.73000  2938.90000   0.
    72.26000  2938.60000   0.
    73.80000  2938.30000   0.
    75.34000  2938.50000   0.
    76.88000  2938.70000   0.
    78.41000  2938.60000   0.
    79.95000  2938.80000   0.
    81.49000  2938.90000   0.
    83.03000  2939.10000   0.
    84.56000  2939.10000   0.
     3.42000  2957.55000   0.
     8.97000  2954.51000   0.
    14.52000  2951.86000   0.
    20.07000  2949.38000   0.
    25.63000  2946.59000   0.
    31.18000  2943.67000   0.
    36.73000  2940.99000   0.
    42.28000  2938.62000   0.
    47.83000  2936.87000   0.
    53.39000  2935.46000   0.
    58.94000  2933.69000   0.
    64.49000  2931.95000   0.
    70.04000  2931.81000   0.
    75.60000  2931.36000   0.
    81.15000  2931.70000   0.
     0.51333  2967.60000   0.
     1.02667  2967.10000   0.
     2.05333  2966.03333   0.
     2.56667  2965.46667   0.
     3.59000  2964.63333   0.
     4.10000  2964.36667   0.
     5.12333  2963.83333   0.
     5.63667  2963.56667   0.
     6.66333  2963.06667   0.
     7.17667  2962.83333   0.
     8.20333  2962.23333   0.
     8.71667  2961.86667   0.
     9.74000  2961.23333   0.
    10.25000  2960.96667   0.
    11.27333  2960.46667   0.
    11.78667  2960.23333   0.
    12.81333  2959.76667   0.
    13.32667  2959.53333   0.
    14.35333  2959.10000   0.
    14.86667  2958.90000   0.
    15.89000  2958.50000   0.
    16.40000  2958.30000   0.
    17.42333  2957.83333   0.
    17.93667  2957.56667   0.
    18.96333  2957.06667   0.
    19.47667  2956.83333   0.
    20.50000  2956.33333   0.
    21.01000  2956.06667   0.
    22.03333  2955.53333   0.
    22.54667  2955.26667   0.
    23.57333  2954.76667   0.
    24.08667  2954.53333   0.
    25.11333  2954.03333   0.
    25.62667  2953.76667   0.
    26.65333  2953.26667   0.
    27.16667  2953.03333   0.
    28.19000  2952.50000   0.
    28.70000  2952.20000   0.
    29.72333  2951.63333   0.
    30.23667  2951.36667   0.
    31.26333  2950.80000   0.
    31.77667  2950.50000   0.
    32.80333  2949.96667   0.
    33.31667  2949.73333   0.
    34.34000  2949.23333   0.
    34.85000  2948.96667   0.
    35.87333  2948.50000   0.
    36.38667  2948.30000   0.
    37.41333  2947.83333   0.
    37.92667  2947.56667   0.
    38.95333  2947.10000   0.
    39.46667  2946.90000   0.
    40.49000  2946.50000   0.
    41.00000  2946.30000   0.
    42.02333  2945.90000   0.
    42.53667  2945.70000   0.
    43.56333  2945.36667   0.
    44.07667  2945.23333   0.
    45.10333  2944.90000   0.
    45.61667  2944.70000   0.
    46.64000  2944.36667   0.
    47.15000  2944.23333   0.
    48.17333  2943.93333   0.
    48.68667  2943.76667   0.
    49.71333  2943.53333   0.
    50.22667  2943.46667   0.
    51.25333  2943.26667   0.
    51.76667  2943.13333   0.
    52.79000  2942.83333   0.
    53.30000  2942.66667   0.
    54.32333  2942.36667   0.
    54.83667  2942.23333   0.
    55.86333  2941.93333   0.
    56.37667  2941.76667   0.
    57.40333  2941.40000   0.
    57.91667  2941.20000   0.
    58.94000  2940.86667   0.
    59.45000  2940.73333   0.
    60.47333  2940.43333   0.
    60.98667  2940.26667   0.
    62.01333  2939.90000   0.
    62.52667  2939.70000   0.
    63.55333  2939.36667   0.
    64.06667  2939.23333   0.
    65.34500  2939.15000   0.
    66.88000  2939.20000   0.
    68.42000  2939.15000   0.
    69.70333  2939.03333   0.
    70.21667  2938.96667   0.
    71.24000  2938.80000   0.
    71.75000  2938.70000   0.
    72.77333  2938.50000   0.
    73.28667  2938.40000   0.
    74.31333  2938.36667   0.
    74.82667  2938.43333   0.
    75.85333  2938.56667   0.
    76.36667  2938.63333   0.
    77.64500  2938.65000   0.
    78.92333  2938.66667   0.
    79.43667  2938.73333   0.
    80.72000  2938.85000   0.
    82.00333  2938.96667   0.
    82.51667  2939.03333   0.
    83.79500  2939.10000   0.
     0.08400  2959.57200   0.
     1.19600  2958.89800   0.
     2.30800  2958.22400   0.
     4.53000  2956.94200   0.
     5.64000  2956.33400   0.
     6.75000  2955.72600   0.
     7.86000  2955.11800   0.
    10.35750  2953.84750   0.
    11.74500  2953.18500   0.
    13.13250  2952.52250   0.
    15.90750  2951.24000   0.
    17.29500  2950.62000   0.
    18.68250  2950.00000   0.
    21.18200  2948.82200   0.
    22.29400  2948.26400   0.
    23.40600  2947.70600   0.
    24.51800  2947.14800   0.
    26.74000  2946.00600   0.
    27.85000  2945.42200   0.
    28.96000  2944.83800   0.
    30.07000  2944.25400   0.
    32.56750  2943.00000   0.
    33.95500  2942.33000   0.
    35.34250  2941.66000   0.
    38.11750  2940.39750   0.
    39.50500  2939.80500   0.
    40.89250  2939.21250   0.
    43.66750  2938.18250   0.
    45.05500  2937.74500   0.
    46.44250  2937.30750   0.
    49.22000  2936.51750   0.
    50.61000  2936.16500   0.
    52.00000  2935.81250   0.
    54.77750  2935.01750   0.
    56.16500  2934.57500   0.
    57.55250  2934.13250   0.
    60.32750  2933.25500   0.
    61.71500  2932.82000   0.
    63.10250  2932.38500   0.
    65.87750  2931.91500   0.
    67.26500  2931.88000   0.
    68.65250  2931.84500   0.
    71.43000  2931.69750   0.
    72.82000  2931.58500   0.
    74.21000  2931.47250   0.
    76.98750  2931.44500   0.
    78.37500  2931.53000   0.
    79.76250  2931.61500   0.
    82.53750  2931.75500   0.
    83.92500  2931.81000   0.
     6.60134  2937.05984   0.
    20.80435  2932.52560   0.
     3.78758  2946.36592   0.
    15.48523  2940.98228   0.
    29.30091  2934.50364   0.
    23.90594  2939.46561   0.
    40.87322  2931.62711   0.
     1.03219  2951.87344   0.
    10.83406  2946.32292   0.
    20.42668  2943.42459   0.
    48.80952  2930.83467   0.
    35.50309  2935.49258   0.
     7.54365  2949.73854   0.
    28.57967  2939.84283   0.
    15.90963  2945.83181   0.
    44.30452  2933.27820   0.
    -0.12722  2955.42655   0.
    24.47411  2943.04615   0.
     4.45051  2952.86019   0.
    40.01017  2935.22543   0.
    52.75593  2931.58993   0.
    13.75183  2934.27842   0.
    32.31862  2938.44653   0.
     0.40990  2931.04902   0.
    19.20708  2946.27332   0.
    57.19103  2930.55709   0.
    -0.97178  2947.27328   0.
    19.39705  2939.49643   0.
    11.08068  2950.12444   0.
    32.86215  2930.47012   0.
     7.41320  2941.82707   0.
    13.76382  2948.77946   0.
    27.17579  2942.79365   0.
     7.27112  2952.68663   0.
     2.71547  2954.94653   0.
    22.91159  2945.17994   0.
     2.00816  2941.86911   0.
    24.73355  2934.79062   0.
    47.86753  2934.00196   0.
    50.62083  2933.29089   0.
    60.15732  2930.28185   0.
    37.65425  2937.53830   0.
    44.64836  2929.77041   0.
    10.93416  2939.02064   0.
     4.26476  2949.76242   0.
    36.78915  2931.78219   0.
     7.36345  2946.13476   0.
    30.92470  2941.06806   0.
     6.19921  2931.10091   0.
    35.16618  2938.51604   0.
    16.36294  2929.87801   0.
    13.43632  2943.77014   0.
    42.64967  2935.50406   0.
    26.89596  2931.23775   0.
     1.59760  2936.73753   0.
    17.19200  2948.13905   0.
    -0.61497  2957.60981   0.
    26.49360  2937.36117   0.
     9.56799  2951.50953   0.
    17.55858  2943.77119   0.
    55.26825  2932.33039   0.
    22.03247  2936.46128   0.
    16.10828  2937.24515   0.
    22.48452  2941.40733   0.
    20.86327  2946.43955   0.
    29.71126  2937.35408   0.
    32.14062  2935.59882   0.
    45.26358  2935.44707   0.
    29.19256  2942.39482   0.
    25.22337  2944.48902   0.
    25.77440  2940.40763   0.
     5.12787  2951.33100   0.
     9.72036  2943.07255   0.
     0.63027  2944.64860   0.
     5.15669  2954.13690   0.
    33.80274  2940.56791   0.
     1.57076  2956.41210   0.
     9.31000  2947.97928   0.
     9.87726  2933.53233   0.
    53.60824  2932.85261   0.
    40.63972  2936.89193   0.
    13.47285  2946.23828   0.
    37.68088  2934.75035   0.
    46.32767  2931.88185   0.
    18.64740  2941.16071   0.
    13.09413  2950.32980   0.
    18.01744  2935.92389   0.
     0.55332  2948.73049   0.
     5.35766  2947.55011   0.
    42.44669  2933.52960   0.
    57.75733  2932.24094   0.
    23.68300  2931.83870   0.
    19.94397  2947.74183   0.
    61.81887  2931.15328   0.
[...]
POINT_DATA      1414
CELL_DATA      2568
SCALARS Resistivity(ohm.m) double 1
LOOKUP_TABLE default
          1325.27299          1663.41426          2199.17400          1283.14975           476.47087          2032.14494          1287.29669          1528.23029          1552.46336          1949.44540           787.83000          1975.45401           528.61621          2289.91721          2264.06540          1902.33569          1504.20157           401.19009           487.12047          2295.81564          1205.45004          1908.35671          1312.39953           591.95573          1755.53678           531.68686           248.61968          1996.26257          2215.06578          2138.85213           497.14999           518.82247          1595.05503           350.73449           386.96894          1616.48616           707.80393          1123.65376          1269.06346          1482.20240          1739.41080           651.95463           528.59821          2349.07150           364.23588           370.18905          3063.13776           875.25786           554.30189           945.09901          2622.00512          1761.17423          1158.27293          1493.40393          2278.69519          1078.16690           397.79001          2061.33856           425.22789          1265.64909           479.38675          2064.86936           401.92083          1883.26659           260.22171          1457.89872          1940.13463          1893.82006           299.98436           855.56000           490.96925           774.32369          2008.86741           450.76245           300.28821          3014.88519          1526.94823           401.84919           300.58064          2869.83957          2693.99933          1512.54936           420.78997           392.75465          1962.84948           940.58797           365.36911          2077.29456           873.96839          1808.16408          1250.66543           399.90109          2053.13278           342.08499          1716.95638          1930.97609           538.86233          1421.10777          2147.14912          1191.71841          1562.15066           498.55217           639.07740           693.90524          1002.39636          1598.53070           475.53673          1057.54443          2134.71875          1499.60282           368.41974          1159.95598          2598.37079          1772.22281          1985.37822          1235.32066          1075.88969          1456.14545           502.88896           338.80413          2182.08336          1472.48159          3091.35612           753.25015           501.06262          1908.59949          2468.38642          3297.39738          1839.65665          1424.30626          1890.84092          1253.69167          1224.51993          2199.73133           880.76965          2926.62062           361.36013          1571.07797          1198.99730          1278.00152          1555.05065           480.97290           629.07589          1354.88490          1572.72587           537.86730           458.42433          1489.99088          1820.41861           588.89857          2188.96136          1830.58642          1048.57038           650.00810          2164.30434           269.05378          1688.35911           349.12134          2225.00526          1257.51110          1360.00558           494.72766          2353.66926           459.73728          2021.83204           485.63945          1403.71707          1801.52492          1850.43605          1630.09124           683.57398           796.09339           728.74892           273.81895           421.13200           974.49141           953.61692          3540.54328          2743.95000          1328.20181          2089.84023          1546.31048          1843.02383           778.06289           484.57304          1151.69810          1027.15205           699.10480           892.75687          2512.95779          1232.24847          2417.77843           678.05929          2707.53419           270.71436           564.72746          2618.62418          1911.02293          1376.81596           457.23116           260.82696           820.06261          1801.40369          1389.18581          1812.24849          1230.79602          3812.67880          2255.91601           429.96558          2122.91066          1326.05267           572.30439           446.52222           359.38509           606.02629          1334.38960          2362.67437           469.72014          1408.20566           531.81147           884.48203          1510.94236          1304.65208           360.99830           588.55322           748.89364           354.50368           622.88861          1210.79769           328.06325          1123.52698          2014.43595          1454.92812          3044.46228          2282.27283          1746.46651          2363.67903          1587.34482          1564.88484          1407.70751          2643.58928           592.43610          1142.18186           465.20617          2456.16636           253.03865          1764.31399           470.27562           409.81522          1980.18853           242.06043          2002.15612          1791.25958           772.31107          1851.38166          1118.28109           574.93450           809.84528           677.34757          2989.10906           501.34862          2042.41246           456.97463           499.73826           437.16986          1738.49454           390.11394          2096.91577          1074.48479          2289.05084          1065.74233          2044.70376          2472.69040          2021.94701           420.93988          1592.67436          2149.67812           392.05277           658.01458           592.95145           392.30611          1319.52287           273.17825          1074.47943           977.96236          2177.81919           518.62523          2334.04451           555.60180           446.68541           964.56467           303.25108          2225.04086           771.09136          1810.91290          2106.29723          1568.27614           523.21427           510.64138           711.75565          1024.16730           448.95240          2474.03241          2596.68504           352.96902          1731.19580          1296.42385          1486.52392          1878.31978           362.03296           797.74580           505.94708           303.98683          2106.65210           767.88619           340.97704           472.38075          1248.62914          2859.72312           446.68571          3321.82157           389.16889           906.66325           424.11073           576.05654          1267.98891           452.62166          1312.17704          1218.80391          2931.93031          1695.34049          1960.74806           590.16926          1693.88916           352.11921           408.11154           652.17322           546.86476          3217.43090           603.30391          2026.65615           391.00075          1926.91063           418.69813           561.85093          1705.69609          1397.70015          1096.34092           440.01861          1999.64965           423.14721          2488.07933           892.46872           369.53345           496.29093          1943.70694           481.00652          1677.26781           335.40574           428.72031           826.07303          1423.02882           969.11390           606.58935          1316.86013           570.35958           363.89649          2184.88279          1803.91648          2732.75240           380.68442          1256.99422          1395.88964          1052.22618           295.13620          2716.93836           401.85003           433.79569           377.52232          1906.01428          1373.81606           399.49745          1686.91547          2345.30477           243.36872          1294.83000           505.27389          1527.49822           461.35641          1653.28460           825.78956           352.55770          1358.11975          1332.44063           409.04831           813.67227           664.25506          1420.90643          1631.41328          1136.50031           489.41397           732.25959          1432.42529          1338.91955          1428.94696           992.81589           565.99433          1111.21094          2072.86495          1675.48433          1612.63135          2092.98374          1109.18494           596.47605          1138.11404          2447.49282           625.17736           821.77732           657.41870          1776.36810          1074.14154           404.02798          2051.94824          1590.41489          1448.91973           284.37725          1642.98200           493.57691          1364.49456           455.03943          1469.77795           438.64731           402.69394          1891.04303          1221.58757          1455.45840          1584.78126           577.51381          1811.08443          1347.64020          3530.98926           601.02136          1298.07457          2064.41810          1258.17645          1279.55476          1227.37256          1304.26233          4181.96969           979.59126          3340.37063          1607.79997          1589.58471          1267.37470          1717.61907           904.28459          2124.12398          1085.38639          1546.26958           382.08093          1766.49010          1395.62330          1033.11941          1455.41360          1975.03111           916.69131           893.32654          1318.56199          1691.53022          1710.82895           820.11158          1706.21897           984.74990           282.57163          1789.65453          3888.16579          1178.16875           415.92065          1655.14651           707.94219          1076.41595          1908.98098           548.52881           522.06375          1954.59068          2840.38781          1405.10791           347.69994           642.34867           818.65364          1350.36988          1287.37342          1226.76773          1412.02630           904.93351          1363.57369           843.06507          1260.93541          2605.84433          1694.00163           604.56583           316.34943           513.33018          1464.48714           844.31013          1420.00639          3706.56206          1383.93791           385.76537           509.89409          1437.85974          1395.68093           968.74311           454.09283          3242.23062          1294.38617           403.29095          3387.69432          2143.17120           362.59176          1525.49645          1345.96274          1268.37428          1362.91737          1279.27162           631.87990          1719.86091          1348.06591          1373.42827          1395.06602           762.66434          1808.00950           393.52386          1308.29335           675.18795           373.57379           777.81871          1704.14869          1314.17716          1104.12488           384.52919           440.29064          1663.07496          1346.49395          4197.06632          4467.56484          3746.36438          2510.01062          2169.71682          2238.22215          3248.06951          4789.82128           724.93730          4448.60616           492.35495          1077.58493          1396.70423           722.90792          3376.47107          5186.08229          1376.35128           455.37057          2188.51909          2875.87308           765.80629           896.87470          1389.34496          4211.31172          1611.51376          1909.29496           912.15207           706.65145          1363.43746          1601.86012           551.87661          3645.57117           481.73552          1650.74331          5366.08082          4028.12949          1798.02066          4859.66956           263.28834           862.45619           454.09980          2205.17422          2834.88924          1812.45625          3063.77191          1959.10347          2591.91699           732.50455          1574.92297          1271.32257          1891.30605          8415.21720          3759.08756          1024.50361          4495.90991          4312.79671           787.06011           629.40205          5250.56162          2747.89234          4227.10492          4680.74523          1578.58059           853.94500           596.96703           581.15298           774.39066          4114.53062          1686.19446           996.13169          1509.41683           296.90553          1078.43166          1931.21924          3922.10601          1167.59358           922.25501           677.98685           905.76993          1765.57453          1663.00096           928.75954          3672.56071          2645.66518          3463.26974          3781.96825          5264.59894          4107.12681          2762.43706           632.12868          4045.32794          1404.59807          1581.76042           648.91850          1387.91003           867.97627           381.85307          5444.83280          5440.63614          1429.49250          1751.62651          2987.74494          2491.77107          3121.45129          2883.73003           893.09698          1447.48619           649.42522           876.47675           397.61614           509.86302           754.20323           616.04674          2189.08045          4284.26065          3753.36495          1429.21288          2290.84003          1540.23692          1919.86733          8319.98964          5073.77337          2099.17047           410.01467           577.85565          5373.81023           707.14560          3862.98078          4264.27670          1041.91713          2452.54911           729.76001           851.17959          1051.11512          2555.77148          2595.95468          2759.89267           644.50242           578.64680          1203.61700           356.96342           611.98762           479.32471          3812.30596          5604.32311           554.21305          3153.16887           936.67838          2512.77198          1250.93093           708.22936           639.79085           769.86288           664.34046          2102.78018           779.73456          1692.57613           701.95143          2200.58097          1768.61903          4561.50467          2427.32616           807.11632           618.86682           312.19772          3438.37400           739.53891           780.38383          1414.39624          2905.44359           751.35920           779.45140           545.63326          1362.80224          1368.05986          1760.26290          1326.47811           642.20230           690.82430           679.60580          2689.01124          1737.66937          1383.15325          7908.45134          1033.76243          1021.31630           957.10670          1812.49982          2480.45949          1435.68117          1636.86604          2148.08808          2518.46885           567.74761          7290.43801          1649.84642          2837.36563           930.96631          1219.15558          4160.23816          2729.97523           719.79915          1173.35652          3692.01504           523.49374           525.47890          1319.41716          2549.69839          5152.83140          1519.12621          7119.21745          1432.18416          1917.88298          1415.55116          1218.70842           452.76235           786.43989          3034.73312           660.85412          4213.28898           645.85424          3337.29724           911.37826           894.32588          1652.15330          2143.12303          3355.21234          5007.55091          2676.04599          1531.41012          1867.24406          1253.16146          5929.68317          7748.05223          1965.98502          1099.56454          3193.85153           657.28738          1160.43214           876.56919          2911.60333          1180.46725          1079.67369           524.82287           622.23493          3635.15178          1119.92234           712.41512          5797.86282          4067.44769          2202.84778          1595.47831          6932.77099           825.18448          2976.95895          3234.26203          2302.82792          1274.47177          2967.13076          5474.04750          1986.77313           497.16009           703.75243           910.07290          1922.20101          1849.29355           702.68442           722.27217          6180.98679           839.03036          1241.49052          1941.88984          3946.89158          5442.21470           526.43859          1480.93025           816.05769          1168.49022          1873.20402           705.67139           850.40848          1458.95991           760.31591           648.07923           429.86024           873.69063          3230.47642           451.71528          3152.20077          1906.64228          2040.64875          1570.57925          2112.08979          1464.36493           439.15126          4511.91559          1667.04811          1960.68650          1950.18511          2231.18093          5758.03278          1067.45690          4943.79536           541.76622           635.09871          1702.53031          1191.15224          7759.12400          2695.08268           970.95456          1604.43629          4202.35736          3674.20856           668.72639          4781.64716          1403.78632          2749.62949          1026.70899          3415.11150          3609.28005           497.05169          3271.79556          4047.14318          2840.34178          5550.03472           788.75754           785.07268          1179.60618          2332.74029           527.12265          9385.23298          3754.77081           672.90036          1929.96134          2101.07739          2206.19148           740.28677          1177.98346         14172.63690           742.85098          2365.70977          1462.13968           495.74436           788.32352          2537.44460          5125.60380          6245.29901          2013.80166          2267.10554          2396.60976          4522.87686           717.23431          1624.71345          2325.02657          1892.21757          5348.54879           662.62263          1181.30057          2790.57426           785.64585          3928.83752          2771.54354          6479.41565          3467.58300          1435.11474          1143.34343           609.67411          5359.46948          7131.80563          2165.15123           249.68807           344.21763           808.71992           897.32417          6384.20582          1405.13875          1981.38439          3721.63163          2766.04141          6154.03404          5639.77593           368.37182           569.20812           734.71447          1188.30167           628.21964          4044.47522          3884.25683          1420.53736           792.07026          1036.92901          2358.86889          3543.83935          2616.05626          2138.92367           956.12594          4006.04749          7985.22790           489.13570           592.60353          1754.16341          7345.56690          2505.64058          2895.71967          4547.61749           869.37817          1981.88070          4289.58464           523.51027          1371.03723          1013.55008          6765.75246           932.10126          1649.36138          2845.25652          5305.58236          5618.96286          5750.43508          4722.20641          4267.59233          1707.24676           888.87580          3086.83753         10964.08222           684.81943          2526.01560          3068.53086           268.26265          2259.54521          3788.71797          2783.79187           481.17585          4551.60480           807.50642          3642.60162          3999.82132          1973.25194           790.38194          3096.57459          3692.12167          5505.09725          6341.26755          5085.53651           652.19182           674.89082          1438.71213          5084.86549          1250.94768          2768.05143          1015.58238           627.333