# vtk DataFile Version 3.0
Output from R2
ASCII
DATASET UNSTRUCTURED_GRID
POINTS       1414 double
     0.00000  2968.10000   0.
     1.54000  2966.60000   0.
     3.08000  2964.90000   0.
     4.61000  2964.10000   0.
     6.15000  2963.30000   0.
     7.69000  2962.60000   0.
     9.23000  2961.50000   0.
    10.76000  2960.70000   0.
    12.30000  2960.00000   0.
    13.84000  2959.30000   0.
    15.38000  2958.70000   0.
    16.91000  2958.10000   0.
    18.45000  2957.30000   0.
    19.99000  2956.60000   0.
    21.52000  2955.80000   0.
    23.06000  2955.00000   0.
    24.60000  2954.30000   0.
    26.14000  2953.50000   0.
    27.68000  2952.80000   0.
    29.21000  2951.90000   0.
    30.75000  2951.10000   0.
    32.29000  2950.20000   0.
    33.83000  2949.50000   0.
    35.36000  2948.70000   0.
    36.90000  2948.10000   0.
    38.44000  2947.30000   0.
    39.98000  2946.70000   0.
    41.51000  2946.10000   0.
    43.05000  2945.50000   0.
    44.59000  2945.10000   0.
    46.13000  2944.50000   0.
    47.66000  2944.10000   0.
    49.20000  2943.60000   0.
    50.74000  2943.40000   0.
    52.28000  2943.00000   0.
    53.81000  2942.50000   0.
    55.35000  2942.10000   0.
    56.89000  2941.60000   0.
    58.43000  2941.00000   0.
    59.96000  2940.60000   0.
    61.50000  2940.10000   0.
    63.04000  2939.50000   0.
    64.58000  2939.10000   0.
    66.11000  2939.20000   0.
    67.65000  2939.20000   0.
    69.19000  2939.10000   0.
    70.73000  2938.90000   0.
    72.26000  2938.60000   0.
    73.80000  2938.30000   0.
    75.34000  2938.50000   0.
    76.88000  2938.70000   0.
    78.41000  2938.60000   0.
    79.95000  2938.80000   0.
    81.49000  2938.90000   0.
    83.03000  2939.10000   0.
    84.56000  2939.10000   0.
     3.42000  2957.55000   0.
     8.97000  2954.51000   0.
    14.52000  2951.86000   0.
    20.07000  2949.38000   0.
    25.63000  2946.59000   0.
    31.18000  2943.67000   0.
    36.73000  2940.99000   0.
    42.28000  2938.62000   0.
    47.83000  2936.87000   0.
    53.39000  2935.46000   0.
    58.94000  2933.69000   0.
    64.49000  2931.95000   0.
    70.04000  2931.81000   0.
    75.60000  2931.36000   0.
    81.15000  2931.70000   0.
     0.51333  2967.60000   0.
     1.02667  2967.10000   0.
     2.05333  2966.03333   0.
     2.56667  2965.46667   0.
     3.59000  2964.63333   0.
     4.10000  2964.36667   0.
     5.12333  2963.83333   0.
     5.63667  2963.56667   0.
     6.66333  2963.06667   0.
     7.17667  2962.83333   0.
     8.20333  2962.23333   0.
     8.71667  2961.86667   0.
     9.74000  2961.23333   0.
    10.25000  2960.96667   0.
    11.27333  2960.46667   0.
    11.78667  2960.23333   0.
    12.81333  2959.76667   0.
    13.32667  2959.53333   0.
    14.35333  2959.10000   0.
    14.86667  2958.90000   0.
    15.89000  2958.50000   0.
    16.40000  2958.30000   0.
    17.42333  2957.83333   0.
    17.93667  2957.56667   0.
    18.96333  2957.06667   0.
    19.47667  2956.83333   0.
    20.50000  2956.33333   0.
    21.01000  2956.06667   0.
    22.03333  2955.53333   0.
    22.54667  2955.26667   0.
    23.57333  2954.76667   0.
    24.08667  2954.53333   0.
    25.11333  2954.03333   0.
    25.62667  2953.76667   0.
    26.65333  2953.26667   0.
    27.16667  2953.03333   0.
    28.19000  2952.50000   0.
    28.70000  2952.20000   0.
    29.72333  2951.63333   0.
    30.23667  2951.36667   0.
    31.26333  2950.80000   0.
    31.77667  2950.50000   0.
    32.80333  2949.96667   0.
    33.31667  2949.73333   0.
    34.34000  2949.23333   0.
    34.85000  2948.96667   0.
    35.87333  2948.50000   0.
    36.38667  2948.30000   0.
    37.41333  2947.83333   0.
    37.92667  2947.56667   0.
    38.95333  2947.10000   0.
    39.46667  2946.90000   0.
    40.49000  2946.50000   0.
    41.00000  2946.30000   0.
    42.02333  2945.90000   0.
    42.53667  2945.70000   0.
    43.56333  2945.36667   0.
    44.07667  2945.23333   0.
    45.10333  2944.90000   0.
    45.61667  2944.70000   0.
    46.64000  2944.36667   0.
    47.15000  2944.23333   0.
    48.17333  2943.93333   0.
    48.68667  2943.76667   0.
    49.71333  2943.53333   0.
    50.22667  2943.46667   0.
    51.25333  2943.26667   0.
    51.76667  2943.13333   0.
    52.79000  2942.83333   0.
    53.30000  2942.66667   0.
    54.32333  2942.36667   0.
    54.83667  2942.23333   0.
    55.86333  2941.93333   0.
    56.37667  2941.76667   0.
    57.40333  2941.40000   0.
    57.91667  2941.20000   0.
    58.94000  2940.86667   0.
    59.45000  2940.73333   0.
    60.47333  2940.43333   0.
    60.98667  2940.26667   0.
    62.01333  2939.90000   0.
    62.52667  2939.70000   0.
    63.55333  2939.36667   0.
    64.06667  2939.23333   0.
    65.34500  2939.15000   0.
    66.88000  2939.20000   0.
    68.42000  2939.15000   0.
    69.70333  2939.03333   0.
    70.21667  2938.96667   0.
    71.24000  2938.80000   0.
    71.75000  2938.70000   0.
    72.77333  2938.50000   0.
    73.28667  2938.40000   0.
    74.31333  2938.36667   0.
    74.82667  2938.43333   0.
    75.85333  2938.56667   0.
    76.36667  2938.63333   0.
    77.64500  2938.65000   0.
    78.92333  2938.66667   0.
    79.43667  2938.73333   0.
    80.72000  2938.85000   0.
    82.00333  2938.96667   0.
    82.51667  2939.03333   0.
    83.79500  2939.10000   0.
     0.08400  2959.57200   0.
     1.19600  2958.89800   0.
     2.30800  2958.22400   0.
     4.53000  2956.94200   0.
     5.64000  2956.33400   0.
     6.75000  2955.72600   0.
     7.86000  2955.11800   0.
    10.35750  2953.84750   0.
    11.74500  2953.18500   0.
    13.13250  2952.52250   0.
    15.90750  2951.24000   0.
    17.29500  2950.62000   0.
    18.68250  2950.00000   0.
    21.18200  2948.82200   0.
    22.29400  2948.26400   0.
    23.40600  2947.70600   0.
    24.51800  2947.14800   0.
    26.74000  2946.00600   0.
    27.85000  2945.42200   0.
    28.96000  2944.83800   0.
    30.07000  2944.25400   0.
    32.56750  2943.00000   0.
    33.95500  2942.33000   0.
    35.34250  2941.66000   0.
    38.11750  2940.39750   0.
    39.50500  2939.80500   0.
    40.89250  2939.21250   0.
    43.66750  2938.18250   0.
    45.05500  2937.74500   0.
    46.44250  2937.30750   0.
    49.22000  2936.51750   0.
    50.61000  2936.16500   0.
    52.00000  2935.81250   0.
    54.77750  2935.01750   0.
    56.16500  2934.57500   0.
    57.55250  2934.13250   0.
    60.32750  2933.25500   0.
    61.71500  2932.82000   0.
    63.10250  2932.38500   0.
    65.87750  2931.91500   0.
    67.26500  2931.88000   0.
    68.65250  2931.84500   0.
    71.43000  2931.69750   0.
    72.82000  2931.58500   0.
    74.21000  2931.47250   0.
    76.98750  2931.44500   0.
    78.37500  2931.53000   0.
    79.76250  2931.61500   0.
    82.53750  2931.75500   0.
    83.92500  2931.81000   0.
     6.60134  2937.05984   0.
    20.80435  2932.52560   0.
     3.78758  2946.36592   0.
    15.48523  2940.98228   0.
    29.30091  2934.50364   0.
    23.90594  2939.46561   0.
    40.87322  2931.62711   0.
     1.03219  2951.87344   0.
    10.83406  2946.32292   0.
    20.42668  2943.42459   0.
    48.80952  2930.83467   0.
    35.50309  2935.49258   0.
     7.54365  2949.73854   0.
    28.57967  2939.84283   0.
    15.90963  2945.83181   0.
    44.30452  2933.27820   0.
    -0.12722  2955.42655   0.
    24.47411  2943.04615   0.
     4.45051  2952.86019   0.
    40.01017  2935.22543   0.
    52.75593  2931.58993   0.
    13.75183  2934.27842   0.
    32.31862  2938.44653   0.
     0.40990  2931.04902   0.
    19.20708  2946.27332   0.
    57.19103  2930.55709   0.
    -0.97178  2947.27328   0.
    19.39705  2939.49643   0.
    11.08068  2950.12444   0.
    32.86215  2930.47012   0.
     7.41320  2941.82707   0.
    13.76382  2948.77946   0.
    27.17579  2942.79365   0.
     7.27112  2952.68663   0.
     2.71547  2954.94653   0.
    22.91159  2945.17994   0.
     2.00816  2941.86911   0.
    24.73355  2934.79062   0.
    47.86753  2934.00196   0.
    50.62083  2933.29089   0.
    60.15732  2930.28185   0.
    37.65425  2937.53830   0.
    44.64836  2929.77041   0.
    10.93416  2939.02064   0.
     4.26476  2949.76242   0.
    36.78915  2931.78219   0.
     7.36345  2946.13476   0.
    30.92470  2941.06806   0.
     6.19921  2931.10091   0.
    35.16618  2938.51604   0.
    16.36294  2929.87801   0.
    13.43632  2943.77014   0.
    42.64967  2935.50406   0.
    26.89596  2931.23775   0.
     1.59760  2936.73753   0.
    17.19200  2948.13905   0.
    -0.61497  2957.60981   0.
    26.49360  2937.36117   0.
     9.56799  2951.50953   0.
    17.55858  2943.77119   0.
    55.26825  2932.33039   0.
    22.03247  2936.46128   0.
    16.10828  2937.24515   0.
    22.48452  2941.40733   0.
    20.86327  2946.43955   0.
    29.71126  2937.35408   0.
    32.14062  2935.59882   0.
    45.26358  2935.44707   0.
    29.19256  2942.39482   0.
    25.22337  2944.48902   0.
    25.77440  2940.40763   0.
     5.12787  2951.33100   0.
     9.72036  2943.07255   0.
     0.63027  2944.64860   0.
     5.15669  2954.13690   0.
    33.80274  2940.56791   0.
     1.57076  2956.41210   0.
     9.31000  2947.97928   0.
     9.87726  2933.53233   0.
    53.60824  2932.85261   0.
    40.63972  2936.89193   0.
    13.47285  2946.23828   0.
    37.68088  2934.75035   0.
    46.32767  2931.88185   0.
    18.64740  2941.16071   0.
    13.09413  2950.32980   0.
    18.01744  2935.92389   0.
     0.55332  2948.73049   0.
     5.35766  2947.55011   0.
    42.44669  2933.52960   0.
    57.75733  2932.24094   0.
    23.68300  2931.83870   0.
    19.94397  2947.74183   0.
    61.81887  2931.15328   0.
[...]
POINT_DATA      1414
CELL_DATA      2568
SCALARS Resistivity(ohm.m) double 1
LOOKUP_TABLE default
          1251.79346          1686.90163          2256.94671          1211.41811           515.44277          2172.83141          1297.41991          1539.94454          1531.15809          2081.96372           777.55061          2091.26101           544.33013          2239.52534          2199.63363          1977.89546          1495.02540           423.58424           480.92917          2355.79674          1209.28574          1986.81022          1274.63030           627.36323          1764.52383           501.78785           251.65434          2135.58389          2130.49514          2247.46502           500.75587           495.68840          1602.39133           363.40495           354.59234          1687.29525           709.41914          1062.83372          1232.23382          1540.06065          1702.76228           656.90219           477.37327          2253.65285           328.38417           379.66541          2946.02810           853.83393           567.13518           935.40417          2588.19268          1749.84163          1098.06798          1479.92405          2326.34610          1022.44744           355.05636          2203.42765           427.78112          1192.58638           522.17480          2043.65878           419.28770          1944.95314           256.18844          1442.65835          2039.37460          2010.65261           276.39699           799.37091           461.64432           769.47093          1957.41632           401.13255           296.04417          2914.39710          1484.67888           424.84729           318.35900          2764.24590          2623.99076          1501.53914           416.29919           389.81963          1952.08802           882.24769           327.77636          2006.29711           863.50028          1886.29615          1174.14250           359.31636          2191.87806           340.15154          1803.91363          1901.12400           550.56057          1340.22397          2096.33721          1121.50402          1551.49368           535.14113           653.98796           696.97290          1019.84001          1576.00126           508.46407          1009.79088          2210.13817          1423.01437           362.14044          1139.71023          2485.37832          1821.86149          1927.96482          1227.84157          1053.22161          1443.75733           462.37829           306.49962          2270.83100          1431.10506          2984.28365           755.10016           515.09780          1981.19051          2361.08686          3214.28135          1891.52502          1439.60061          2006.11726          1188.96421          1201.45263          2183.76858           861.01348          2819.83244           359.03877          1554.99972          1127.66297          1269.65001          1554.70741           512.94734           639.11704          1356.32366          1571.68224           567.45476           454.36934          1468.73139          1846.43192           579.94610          2287.98531          1805.34919          1001.96723           653.41166          2227.68960           269.83734          1693.94636           370.37186          2142.03310          1235.89793          1282.34411           516.01532          2258.14774           466.46506          2175.34926           525.33832          1437.11335          1870.71187          1803.49819          1629.85004           683.78243           790.52879           730.14900           257.93170           406.14280           943.11704           901.58747          3514.14057          2630.25981          1246.98906          2189.57201          1505.72432          1927.65277           774.30409           526.41204          1084.58918           969.80513           689.84956           868.79376          2421.95273          1202.84893          2351.31327           636.86945          2609.87764           258.86625           530.73508          2542.91683          2041.17047          1310.30199           423.90192           270.87596           808.05398          1844.39615          1372.96802          1871.58326          1158.85153          3823.80912          2328.25969           395.47153          2250.09430          1294.85202           600.25316           423.70757           325.07478           625.97698          1268.04820          2274.20940           450.58086          1335.59092           533.66012           867.90819          1437.53209          1224.20709           330.58302           615.64824           699.26101           367.52648           578.79014          1207.47472           321.43329          1081.67115          2104.43361          1421.80648          2946.84738          2322.05441          1751.15785          2371.20441          1536.84785          1501.03217          1372.01013          2541.56069           611.08524          1075.92830           413.54025          2402.14774           250.76180          1824.76746           485.35998           421.17859          2127.40119           246.22750          2099.36794          1807.24207           738.60035          1921.28473          1060.81699           582.19232           779.92124           691.69830          2886.75058           529.02287          2190.61121           470.51364           446.95534           436.54558          1729.42639           350.72726          2210.09647          1012.49622          2335.55951          1023.92348          2160.58894          2366.88502          2136.51517           413.61318          1595.98709          2261.73880           407.47360           661.65716           600.66251           415.43021          1304.42757           261.33013          1022.68730           941.47069          2246.07098           485.36542          2375.89176           583.16005           457.93998           937.85835           287.87039          2229.29389           712.72000          1859.72001          2215.15427          1516.68251           538.40359           455.06430           688.14308          1010.47667           441.05116          2472.34072          2486.76257           375.88014          1704.41245          1271.74289          1475.82796          1831.64308           367.21570           750.17534           532.21096           281.61043          2219.61047           758.28787           318.04380           495.02298          1200.56039          2751.55152           426.60958          3259.65316           382.93936           931.32034           440.17170           560.70472          1225.21329           454.55014          1300.13064          1151.57375          2822.31651          1730.79623          2104.01818           533.63647          1668.88208           339.13384           390.80986           625.64910           580.27848          3140.42660           609.60041          2060.99825           393.77976          2049.82247           442.48907           581.30845          1689.03925          1314.75889          1104.14073           443.46870          2093.56177           432.74881          2389.65807           853.46030           353.70935           472.75274          1986.62587           495.12598          1656.79535           307.70654           388.41555           810.74654          1409.09800           933.84152           546.44745          1295.80652           510.95393           342.11585          2269.67701          1835.42163          2620.39380           406.98750          1240.30511          1372.44070          1020.77859           286.42354          2606.78093           393.56394           433.63699           402.50537          1926.12890          1343.38526           407.80407          1657.95534          2331.07292           255.29300          1277.12877           544.58496          1463.27061           442.76357          1610.43736           765.73508           328.39681          1342.83746          1358.19178           414.93132           798.74410           601.81160          1397.11962          1620.01845          1080.87376           526.15868           670.12566          1385.36046          1331.20137          1372.92879           950.32329           542.81684          1049.02948          2198.04770          1680.16704          1577.38771          2091.79508          1059.24847           630.87397          1129.80437          2468.21370           630.67393           849.66792           668.75571          1801.65820          1026.37586           376.34247          2110.43165          1530.38925          1378.01666           270.06662          1677.19471           531.27190          1344.06638           475.44763          1408.88948           457.93483           408.46891          1977.73379          1150.17528          1436.60842          1553.77553           591.50229          1777.78884          1329.99580          3506.01985           632.39590          1240.94044          2140.81387          1205.09179          1202.44784          1216.58758          1253.40822          4200.18572           935.52992          3277.35713          1595.18446          1572.00717          1240.76324          1750.17652           880.69856          2061.08502          1024.75075          1477.13470           407.74904          1814.14971          1352.95947           978.63252          1407.09969          2127.79318           889.30087           868.13515          1259.87006          1750.23721          1713.74663           814.95317          1734.21013           948.36422           279.14496          1854.98435          3885.08364          1121.02490           414.73916          1617.60844           715.74832          1068.63033          1993.08184           525.95679           538.48798          2101.06039          2747.52330          1345.70898           336.29388           647.25615           810.25442          1306.11869          1224.14627          1163.13947          1398.35705           870.56643          1352.16673           822.60963          1184.00347          2496.49904          1706.05375           613.79809           305.33936           544.97037          1388.27693           827.66386          1339.87738          3669.45005          1325.49635           355.44207           492.25862          1370.96070          1317.33868           934.82884           406.90044          3164.34924          1288.96245           365.89193          3319.01085          2186.76079           387.98938          1472.57472          1294.39267          1193.45635          1292.36907          1201.37681           577.05407          1704.61182          1335.50691          1359.37116          1356.78915           746.04099          1835.20936           419.83621          1268.89866           614.83269           400.31172           766.31498          1729.44738          1234.03860          1040.48469           412.20086           393.04734          1684.32156          1268.17554          4277.48233          4441.06998          3699.74901          2375.85067          2174.29045          2227.08680          3298.27382          4663.77826           694.13435          4447.20256           473.15579          1088.05765          1411.19470           728.94760          3586.70289          5186.57174          1332.00486           444.73772          2090.90297          2859.63180           793.36145           904.91154          1411.89161          4363.88729          1581.33319          2146.21218           911.48190           698.91134          1377.97654          1658.21091           495.22625          3520.06236           491.17335          1590.42405          5215.52024          4102.17829          1847.92910          5008.11172           297.48523           878.24007           464.00595          2089.85340          2786.99559          1807.38773          3041.35627          1946.01739          2685.52140           762.84802          1565.67277          1296.29221          1915.21516          8256.27326          3739.63958          1046.32585          4709.49329          4104.73096           826.18019           643.26995          5206.90433          2851.35852          4401.68771          4932.69840          1602.29248           850.00301           605.93493           535.45743           795.73056          4108.07605          1695.67296          1006.04529          1590.33425           334.87000          1083.90758          1955.26450          3828.44813          1152.39679           896.34189           680.70032           941.37850          1694.59568          1660.98976           928.74634          3553.93341          2777.03493          3349.87448          3619.16340          5625.65935          4020.79518          2792.81140           595.62228          4306.81394          1317.10494          1596.09597           662.50886          1422.92353           903.18309           376.12086          5848.71842          5202.86788          1461.09142          1760.51457          2932.54175          2418.76084          3223.40980          3082.38172           897.83877          1394.14989           634.95684           838.56361           388.12980           510.53760           774.38906           627.74147          2132.91659          4152.68969          3758.78789          1459.52333          2235.75573          1568.33734          1815.39531          8323.79688          5153.95527          2059.29607           397.02937           588.38464          5356.04809           725.57430          4049.53295          4427.43969          1051.88253          2362.54631           740.81122           857.30362          1061.58798          2362.99641          2418.93312          2779.53408           664.35222           535.73544          1190.42580           395.66039           632.36896           462.00798          3748.48281          5542.17839           497.52821          3144.64009           920.60905          2651.00280          1256.26025           681.71190           661.61458           754.21302           650.54032          2110.94342           804.06734          1539.44795           731.84512          2305.34212          1859.70959          4330.33298          2550.05723           785.93040           617.61499           355.29435          3312.43788           730.47684           796.59512          1425.10100          2779.33097           724.51404           811.90505           564.32306          1355.04556          1367.90096          1715.27446          1353.73825           635.18660           762.98318           709.34706          2729.30704          1915.14513          1325.97526          7800.62384          1046.70786           940.25642           957.97934          1681.83808          2540.19905          1501.17316          1629.19164          1855.51780          2682.35595           589.25424          7550.33700          1579.79961          2816.84308           869.36048          1202.71364          4165.98726          2797.70202           750.16497          1142.76970          3603.55306           461.46976           507.71329          1293.91257          2658.42821          5343.85467          1534.55002          7232.20939          1371.35245          1855.51749          1469.26055          1221.80680           460.73875           814.34495          2966.65811           666.11328          4269.24917           668.71234          3365.43376           886.62319           842.60558          1506.00023          2158.29172          3197.87948          5057.45958          2781.34496          1543.26965          1867.95628          1275.06443          5991.15401          7731.18439          2042.29356          1048.65914          3048.65325           642.07122          1155.76357           879.21551          2858.69559          1174.33379          1079.54323           544.93001           626.45293          3750.80110          1059.81344           749.02536          5928.89671          4177.94774          2420.74921          1560.69829          7207.43165           845.41811          2774.73134          3134.54945          2237.94031          1194.31776          3050.52114          5403.68062          2022.93173           458.53516           728.62845           918.70537          1851.53354          1857.20834           680.42327           728.76980          6252.32625           870.92354          1212.50881          2038.28045          4020.97526          5232.16182           481.77450          1510.81857           840.56807          1192.97597          1908.52640           721.31690           837.84086          1519.96271           784.42370           665.80273           411.55288           804.14117          3108.08847           468.59233          3031.17059          1935.02722          2007.88740          1483.94826          1953.82390          1539.42897           419.30526          4299.33305          1661.82297          2020.80754          1927.62044          2258.19365          5439.61190          1132.29027          5232.82253           548.19089           655.78032          1729.06675          1188.39537          7793.38545          2669.56907           931.72261          1672.85596          4309.81027          3600.26616           649.05893          4981.76464          1465.38402          2779.58087          1055.85869          3530.11015          3663.75943           499.61056          3371.61800          3958.55283          2856.11746          5347.21794           814.66546           778.92432          1178.72068          2313.03220           465.54818          9342.41211          3767.65744           671.17483          1826.49079          1959.20368          2203.82902           752.81834          1169.60396         13755.45258           733.57141          2365.54767          1441.97307           452.23655           798.55056          2618.52681          5281.35167          5995.07023          1898.66913          2338.03728          2538.02842          4591.32698           750.69364          1589.94073          2275.91897          1898.05353          5258.41783           649.51290          1177.10589          2882.06868           801.72845          3923.21241          2571.53395          6742.81828          3038.77057          1350.52785          1176.81573           620.40447          5160.89124          7322.94813          2044.79275           278.43797           354.09624           770.79672           882.91199          6486.33283          1417.55268          2227.56972          3534.83368          2814.75247          6101.69441          5490.15044           370.43371           589.13159           756.84460          1200.76741           642.96655          4172.26256          3858.61971          1384.09756           745.28644          1046.86965          2296.71658          3608.62082          2515.85726          2120.55298           904.83462          4221.10389          8058.46598           441.05250           626.76842          1826.69369          7518.15711          2297.17751          2788.40255          4691.37852           824.72458          1949.29924          4349.90950           514.10422          1421.05976          1011.80421          6421.42259           906.37471          1741.57688          2821.49784          5447.05484          5410.97528          5975.09042          4628.24592          4231.65259          1850.87143           948.24813          3131.15752         10819.70056           699.72871          2589.80948          2893.96395           288.30913          2435.89305          3658.54151          2633.49909           464.06563          4480.95638           812.20868          3578.62472          4156.38978          2031.55221           793.10680          3102.64317          3647.99948          5376.38735          6384.83811          5326.18406           643.39753           687.75453          1355.64990          5082.71659          1184.26568          2728.03857           939.65232           612.273