# vtk DataFile Version 3.0
Output from R2
ASCII
DATASET UNSTRUCTURED_GRID
POINTS       1414 double
     0.00000  2968.10000   0.
     1.54000  2966.60000   0.
     3.08000  2964.90000   0.
     4.61000  2964.10000   0.
     6.15000  2963.30000   0.
     7.69000  2962.60000   0.
     9.23000  2961.50000   0.
    10.76000  2960.70000   0.
    12.30000  2960.00000   0.
    13.84000  2959.30000   0.
    15.38000  2958.70000   0.
    16.91000  2958.10000   0.
    18.45000  2957.30000   0.
    19.99000  2956.60000   0.
    21.52000  2955.80000   0.
    23.06000  2955.00000   0.
    24.60000  2954.30000   0.
    26.14000  2953.50000   0.
    27.68000  2952.80000   0.
    29.21000  2951.90000   0.
    30.75000  2951.10000   0.
    32.29000  2950.20000   0.
    33.83000  2949.50000   0.
    35.36000  2948.70000   0.
    36.90000  2948.10000   0.
    38.44000  2947.30000   0.
    39.98000  2946.70000   0.
    41.51000  2946.10000   0.
    43.05000  2945.50000   0.
    44.59000  2945.10000   0.
    46.13000  2944.50000   0.
    47.66000  2944.10000   0.
    49.20000  2943.60000   0.
    50.74000  2943.40000   0.
    52.28000  2943.00000   0.
    53.81000  2942.50000   0.
    55.35000  2942.10000   0.
    56.89000  2941.60000   0.
    58.43000  2941.00000   0.
    59.96000  2940.60000   0.
    61.50000  2940.10000   0.
    63.04000  2939.50000   0.
    64.58000  2939.10000   0.
    66.11000  2939.20000   0.
    67.65000  2939.20000   0.
    69.19000  2939.10000   0.
    70.73000  2938.90000   0.
    72.26000  2938.60000   0.
    73.80000  2938.30000   0.
    75.34000  2938.50000   0.
    76.88000  2938.70000   0.
    78.41000  2938.60000   0.
    79.95000  2938.80000   0.
    81.49000  2938.90000   0.
    83.03000  2939.10000   0.
    84.56000  2939.10000   0.
     3.42000  2957.55000   0.
     8.97000  2954.51000   0.
    14.52000  2951.86000   0.
    20.07000  2949.38000   0.
    25.63000  2946.59000   0.
    31.18000  2943.67000   0.
    36.73000  2940.99000   0.
    42.28000  2938.62000   0.
    47.83000  2936.87000   0.
    53.39000  2935.46000   0.
    58.94000  2933.69000   0.
    64.49000  2931.95000   0.
    70.04000  2931.81000   0.
    75.60000  2931.36000   0.
    81.15000  2931.70000   0.
     0.51333  2967.60000   0.
     1.02667  2967.10000   0.
     2.05333  2966.03333   0.
     2.56667  2965.46667   0.
     3.59000  2964.63333   0.
     4.10000  2964.36667   0.
     5.12333  2963.83333   0.
     5.63667  2963.56667   0.
     6.66333  2963.06667   0.
     7.17667  2962.83333   0.
     8.20333  2962.23333   0.
     8.71667  2961.86667   0.
     9.74000  2961.23333   0.
    10.25000  2960.96667   0.
    11.27333  2960.46667   0.
    11.78667  2960.23333   0.
    12.81333  2959.76667   0.
    13.32667  2959.53333   0.
    14.35333  2959.10000   0.
    14.86667  2958.90000   0.
    15.89000  2958.50000   0.
    16.40000  2958.30000   0.
    17.42333  2957.83333   0.
    17.93667  2957.56667   0.
    18.96333  2957.06667   0.
    19.47667  2956.83333   0.
    20.50000  2956.33333   0.
    21.01000  2956.06667   0.
    22.03333  2955.53333   0.
    22.54667  2955.26667   0.
    23.57333  2954.76667   0.
    24.08667  2954.53333   0.
    25.11333  2954.03333   0.
    25.62667  2953.76667   0.
    26.65333  2953.26667   0.
    27.16667  2953.03333   0.
    28.19000  2952.50000   0.
    28.70000  2952.20000   0.
    29.72333  2951.63333   0.
    30.23667  2951.36667   0.
    31.26333  2950.80000   0.
    31.77667  2950.50000   0.
    32.80333  2949.96667   0.
    33.31667  2949.73333   0.
    34.34000  2949.23333   0.
    34.85000  2948.96667   0.
    35.87333  2948.50000   0.
    36.38667  2948.30000   0.
    37.41333  2947.83333   0.
    37.92667  2947.56667   0.
    38.95333  2947.10000   0.
    39.46667  2946.90000   0.
    40.49000  2946.50000   0.
    41.00000  2946.30000   0.
    42.02333  2945.90000   0.
    42.53667  2945.70000   0.
    43.56333  2945.36667   0.
    44.07667  2945.23333   0.
    45.10333  2944.90000   0.
    45.61667  2944.70000   0.
    46.64000  2944.36667   0.
    47.15000  2944.23333   0.
    48.17333  2943.93333   0.
    48.68667  2943.76667   0.
    49.71333  2943.53333   0.
    50.22667  2943.46667   0.
    51.25333  2943.26667   0.
    51.76667  2943.13333   0.
    52.79000  2942.83333   0.
    53.30000  2942.66667   0.
    54.32333  2942.36667   0.
    54.83667  2942.23333   0.
    55.86333  2941.93333   0.
    56.37667  2941.76667   0.
    57.40333  2941.40000   0.
    57.91667  2941.20000   0.
    58.94000  2940.86667   0.
    59.45000  2940.73333   0.
    60.47333  2940.43333   0.
    60.98667  2940.26667   0.
    62.01333  2939.90000   0.
    62.52667  2939.70000   0.
    63.55333  2939.36667   0.
    64.06667  2939.23333   0.
    65.34500  2939.15000   0.
    66.88000  2939.20000   0.
    68.42000  2939.15000   0.
    69.70333  2939.03333   0.
    70.21667  2938.96667   0.
    71.24000  2938.80000   0.
    71.75000  2938.70000   0.
    72.77333  2938.50000   0.
    73.28667  2938.40000   0.
    74.31333  2938.36667   0.
    74.82667  2938.43333   0.
    75.85333  2938.56667   0.
    76.36667  2938.63333   0.
    77.64500  2938.65000   0.
    78.92333  2938.66667   0.
    79.43667  2938.73333   0.
    80.72000  2938.85000   0.
    82.00333  2938.96667   0.
    82.51667  2939.03333   0.
    83.79500  2939.10000   0.
     0.08400  2959.57200   0.
     1.19600  2958.89800   0.
     2.30800  2958.22400   0.
     4.53000  2956.94200   0.
     5.64000  2956.33400   0.
     6.75000  2955.72600   0.
     7.86000  2955.11800   0.
    10.35750  2953.84750   0.
    11.74500  2953.18500   0.
    13.13250  2952.52250   0.
    15.90750  2951.24000   0.
    17.29500  2950.62000   0.
    18.68250  2950.00000   0.
    21.18200  2948.82200   0.
    22.29400  2948.26400   0.
    23.40600  2947.70600   0.
    24.51800  2947.14800   0.
    26.74000  2946.00600   0.
    27.85000  2945.42200   0.
    28.96000  2944.83800   0.
    30.07000  2944.25400   0.
    32.56750  2943.00000   0.
    33.95500  2942.33000   0.
    35.34250  2941.66000   0.
    38.11750  2940.39750   0.
    39.50500  2939.80500   0.
    40.89250  2939.21250   0.
    43.66750  2938.18250   0.
    45.05500  2937.74500   0.
    46.44250  2937.30750   0.
    49.22000  2936.51750   0.
    50.61000  2936.16500   0.
    52.00000  2935.81250   0.
    54.77750  2935.01750   0.
    56.16500  2934.57500   0.
    57.55250  2934.13250   0.
    60.32750  2933.25500   0.
    61.71500  2932.82000   0.
    63.10250  2932.38500   0.
    65.87750  2931.91500   0.
    67.26500  2931.88000   0.
    68.65250  2931.84500   0.
    71.43000  2931.69750   0.
    72.82000  2931.58500   0.
    74.21000  2931.47250   0.
    76.98750  2931.44500   0.
    78.37500  2931.53000   0.
    79.76250  2931.61500   0.
    82.53750  2931.75500   0.
    83.92500  2931.81000   0.
     6.60134  2937.05984   0.
    20.80435  2932.52560   0.
     3.78758  2946.36592   0.
    15.48523  2940.98228   0.
    29.30091  2934.50364   0.
    23.90594  2939.46561   0.
    40.87322  2931.62711   0.
     1.03219  2951.87344   0.
    10.83406  2946.32292   0.
    20.42668  2943.42459   0.
    48.80952  2930.83467   0.
    35.50309  2935.49258   0.
     7.54365  2949.73854   0.
    28.57967  2939.84283   0.
    15.90963  2945.83181   0.
    44.30452  2933.27820   0.
    -0.12722  2955.42655   0.
    24.47411  2943.04615   0.
     4.45051  2952.86019   0.
    40.01017  2935.22543   0.
    52.75593  2931.58993   0.
    13.75183  2934.27842   0.
    32.31862  2938.44653   0.
     0.40990  2931.04902   0.
    19.20708  2946.27332   0.
    57.19103  2930.55709   0.
    -0.97178  2947.27328   0.
    19.39705  2939.49643   0.
    11.08068  2950.12444   0.
    32.86215  2930.47012   0.
     7.41320  2941.82707   0.
    13.76382  2948.77946   0.
    27.17579  2942.79365   0.
     7.27112  2952.68663   0.
     2.71547  2954.94653   0.
    22.91159  2945.17994   0.
     2.00816  2941.86911   0.
    24.73355  2934.79062   0.
    47.86753  2934.00196   0.
    50.62083  2933.29089   0.
    60.15732  2930.28185   0.
    37.65425  2937.53830   0.
    44.64836  2929.77041   0.
    10.93416  2939.02064   0.
     4.26476  2949.76242   0.
    36.78915  2931.78219   0.
     7.36345  2946.13476   0.
    30.92470  2941.06806   0.
     6.19921  2931.10091   0.
    35.16618  2938.51604   0.
    16.36294  2929.87801   0.
    13.43632  2943.77014   0.
    42.64967  2935.50406   0.
    26.89596  2931.23775   0.
     1.59760  2936.73753   0.
    17.19200  2948.13905   0.
    -0.61497  2957.60981   0.
    26.49360  2937.36117   0.
     9.56799  2951.50953   0.
    17.55858  2943.77119   0.
    55.26825  2932.33039   0.
    22.03247  2936.46128   0.
    16.10828  2937.24515   0.
    22.48452  2941.40733   0.
    20.86327  2946.43955   0.
    29.71126  2937.35408   0.
    32.14062  2935.59882   0.
    45.26358  2935.44707   0.
    29.19256  2942.39482   0.
    25.22337  2944.48902   0.
    25.77440  2940.40763   0.
     5.12787  2951.33100   0.
     9.72036  2943.07255   0.
     0.63027  2944.64860   0.
     5.15669  2954.13690   0.
    33.80274  2940.56791   0.
     1.57076  2956.41210   0.
     9.31000  2947.97928   0.
     9.87726  2933.53233   0.
    53.60824  2932.85261   0.
    40.63972  2936.89193   0.
    13.47285  2946.23828   0.
    37.68088  2934.75035   0.
    46.32767  2931.88185   0.
    18.64740  2941.16071   0.
    13.09413  2950.32980   0.
    18.01744  2935.92389   0.
     0.55332  2948.73049   0.
     5.35766  2947.55011   0.
    42.44669  2933.52960   0.
    57.75733  2932.24094   0.
    23.68300  2931.83870   0.
    19.94397  2947.74183   0.
    61.81887  2931.15328   0.
[...]
POINT_DATA      1414
CELL_DATA      2568
SCALARS Resistivity(ohm.m) double 1
LOOKUP_TABLE default
          1114.00748          1890.79347          2406.33963          1075.86186           562.31800          2197.00204          1293.55187          1397.85774          1801.55659          2076.46570           737.22222          1998.63293           607.28015          2403.46335          2409.58674          1789.16966          1726.29491           434.95496           545.25371          2165.19149          1251.06361          1839.83406          1286.70663           607.35000          2070.64031           540.54628           259.22723          2193.04401          2367.02220          2351.84101           567.13083           538.05969          1807.31829           370.12922           369.73201          1569.18306           680.57188           932.48047          1234.77147          1465.69827          2001.76877           646.58939           498.59908          2461.66408           342.60250           398.27178          3104.54391           789.06897           603.23014           982.86747          2414.78795          2073.15920           955.15176          1733.03203          2394.73910           909.66651           368.57936          2268.88039           467.65995          1018.77278           588.37532          2301.47130           437.16611          1753.20611           264.48963          1683.76451          2201.15878          2060.81771           293.18713           765.75102           522.14266           756.78110          2262.67688           410.84520           323.61494          2981.76108          1409.87402           430.45171           333.07868          2840.31959          2566.40199          1344.42222           446.06356           424.00681          2245.71252           823.55049           342.92687          2275.97083           881.21382          1953.88183          1012.63752           374.18604          2233.85267           372.38155          1695.77357          2218.64571           571.47586          1139.13719          2349.58035           975.38699          1597.47657           603.03731           690.57857           682.42205          1019.39974          1868.52184           560.60412           892.39895          2169.11910          1216.19431           388.93554          1138.08789          2616.27184          1824.00277          2229.93898          1354.90065          1059.54991          1628.24730           494.83682           323.39456          2157.68715          1395.20737          3145.06862           742.96873           526.69702          2195.53595          2526.86046          3399.09907          1764.32736          1354.73405          2149.39234          1071.24910          1251.06586          2335.75917           797.29932          2857.52654           390.01057          1841.91889           986.00274          1424.90930          1709.20329           576.91695           680.91334          1300.31863          1814.63397           629.08407           513.56889          1523.57203          2134.63272           552.63853          2380.28840          2134.09610           886.21740           628.20471          2204.45884           291.59630          1482.08200           368.22987          2386.77646          1315.66603          1090.95271           582.63595          2439.83703           508.17545          2233.91339           600.05477          1380.91085          1698.94922          2101.78460          1910.60607           661.23165           756.29687           737.88513           275.91283           435.56764           892.90094           839.08443          3459.87877          2705.71999          1062.48906          2179.99866          1305.41609          2118.90550           761.81073           595.40860           955.77646           883.41256           712.24122           821.24484          2556.60893          1223.54708          2469.33017           657.38777          2683.45379           271.53976           572.12395          2564.30583          2129.82626          1196.44747           455.11588           285.99921           790.94069          1763.13925          1537.88116          1677.27523          1017.86940          3657.10343          2391.83626           418.04492          2288.75615          1346.09502           653.80776           461.20781           342.05628           577.91699          1156.16056          2472.36118           504.21198          1193.38561           597.70458           860.30646          1245.46589          1048.63913           348.99627           655.39489           698.29322           392.80206           605.19413          1322.38984           315.76598          1010.89898          1985.77181          1434.43293          2915.21884          2210.41777          1530.51169          2269.59918          1317.58256          1315.19673          1390.91995          2657.73848           637.10964           953.74539           425.31845          2450.32422           270.04243          1965.18047           536.39545           445.22932          2159.08745           258.37410          1951.31267          1614.54960           737.37725          2146.92301           925.08447           599.85650           766.94173           700.98849          2841.49071           617.16182          2230.26395           486.56273           463.07316           485.43260          1524.07955           365.07591          2248.76049           910.66368          2476.10127           947.92045          2066.78218          2514.93671          2192.12074           455.96254          1695.89589          2254.01935           423.59709           631.29512           601.01193           424.58550          1463.11905           283.11823           901.96399           854.88201          2353.75709           527.73386          2182.73715           629.66409           486.46370           910.53007           311.90255          2303.07981           698.28624          2115.63755          2163.29435          1373.99708           603.68475           465.53126           707.41723          1053.43401           496.35220          2289.70594          2631.48224           362.90668          2026.85804          1353.86416          1625.81905          2145.36728           398.81272           738.32788           607.64801           294.91579          2199.42089           725.43015           339.45278           533.33604          1093.66691          2745.63476           485.17682          3224.65934           382.77899           941.46814           466.83034           612.20970          1197.41062           506.15783          1469.78237          1022.87646          2946.33135          1880.04321          2194.61024           547.18518          1479.13368           339.02274           410.52033           658.45966           635.97993          3181.80573           563.80946          2255.70063           424.87016          2185.67469           427.53127           640.05848          2008.81171          1121.88604          1092.96475           488.49264          2212.04853           457.79641          2551.92088           812.29445           373.89312           523.61765          2222.18048           558.96443          1517.06165           319.85443           406.68719           777.75924          1638.37362           843.82026           550.82641          1408.17808           513.82021           361.09576          2201.05086          1688.90867          2674.12315           412.12373          1346.52077          1468.96049           991.43523           289.00555          2737.36209           405.70312           467.03188           392.32334          2206.94228          1399.60119           433.60609          1966.55797          2335.77642           262.25695          1403.45016           613.24461          1249.66804           492.12281          1399.20186           735.47305           336.82354          1519.08318          1348.80496           448.10222           754.42054           598.14100          1272.16639          1920.49154           952.58356           608.28262           658.65608          1340.91488          1521.23226          1290.75212           866.20756           548.50867           930.25476          2178.85771          1647.80924          1456.64693          2298.89709           952.67411           628.52734          1167.80678          2224.38240           609.41499           868.35401           672.13695          1691.38198           918.59700           394.95382          2238.21614          1323.33903          1231.25485           279.96938          1505.73675           605.76252          1469.69570           471.00013          1293.01147           463.81261           439.32679          1873.96642           987.10841          1538.19999          1479.84956           615.16315          2103.95925          1250.34741          3549.80608           595.69262          1159.44825          2099.12009          1128.68708          1024.55292          1325.47226          1199.39743          3835.12718           860.30364          3368.27462          1575.20452          1376.13666          1181.89664          1551.19313           817.50027          2335.08010           916.52111          1263.03899           406.50928          2050.43927          1338.34833           887.55096          1234.02347          2199.65861           828.17643           808.62598          1112.13153          1589.98307          1617.95441           822.45561          1980.48037           855.97639           281.36138          2047.92908          3613.12431           989.69962           434.02202          1396.20444           709.75359          1130.02456          1852.41558           577.37856           535.28179          2165.81822          2741.32417          1171.81484           361.48468           610.53093           773.96900          1288.14055          1068.67004          1043.89910          1624.60229           822.02575          1556.08979           793.31569          1015.32556          2587.43704          1989.16216           618.86164           331.93715           612.96094          1212.92354           793.70461          1160.73736          3404.13260          1242.29637           369.29024           549.16947          1177.19003          1154.88554           844.17204           423.40770          3082.50114          1456.20714           381.57407          3145.94213          2246.86954           389.23270          1358.85434          1242.06839          1045.61591          1109.84323          1040.99651           590.51291          1483.58026          1527.73855          1559.96408          1222.79033           747.96772          1628.32946           428.06832          1167.59696           614.69840           402.03455           760.24108          1750.79313          1066.70301           928.51427           417.12815           407.49074          1776.39501          1110.34908          4040.84002          4086.60591          3643.43243          2555.13041          2065.18141          2210.10404          3205.70630          4788.47951           694.95508          4339.62539           496.71568          1084.50519          1333.68899           698.78484          3307.77266          4900.64721          1434.53367           450.04796          2309.02051          2723.99881           764.83666           964.86774          1445.01493          4607.57235          1516.85820          1931.12803           935.62159           666.91736          1369.84853          1547.47709           532.88786          4007.28677           485.25886          1529.64223          5386.97933          4518.87020          1766.30531          4501.94839           272.93705           765.92035           487.49373          2194.68518          2595.94616          1862.09930          3124.13473          2025.59377          2304.92335           706.98862          1563.52646          1367.07551          1867.76590          8983.42990          3810.16612           882.21328          4732.37014          4319.08111           827.31114           570.40876          4943.14911          2597.52977          4676.89372          4421.76822          1471.28098           891.91054           585.08761           614.97997           822.88325          4078.40853          1720.18515          1013.72128          1533.74145           314.43560          1059.32642          1776.28046          3661.54426          1116.05521           956.44254           617.31297           949.16317          1777.19883          1554.11643           880.69508          3710.79191          2761.36956          3702.99659          3822.10313          5483.61959          4208.70593          2758.33385           602.40466          3952.39886          1509.60483          1682.67877           601.35019          1370.14367           958.23048           369.08743          5389.33689          5363.24643          1514.91585          1717.88807          2826.91966          2609.45646          2919.13071          2858.77483           926.11062          1651.39000           638.14604           873.83170           365.28017           499.45567           736.34753           581.08676          2314.53964          4480.40017          3677.66634          1537.21604          2441.99554          1354.86571          1886.54623          7738.84903          4630.62954          2141.34639           393.22829           550.34903          5000.91590           750.07834          3517.04337          4593.73507          1033.50798          2679.45608           741.56485           961.71147          1040.85447          2734.55143          2751.84670          2770.10425           661.99112           517.29995          1140.21188           348.66565           568.63577           456.66361          4154.46177          5340.61249           546.14140          3081.88288          1018.97575          2262.46434          1204.52622           691.11232           680.76098           774.20472           693.83580          2185.91856           820.72505          1829.09848           756.92019          2115.29539          1793.19774          4253.83181          2529.05821           844.47553           603.32507           306.35361          3477.75725           851.65987           788.06182          1348.22069          2845.80979           713.62159           778.54575           521.37248          1373.54065          1381.56108          1786.79497          1442.80605           663.61598           750.78740           662.59055          2355.27347          1816.00752          1356.03882          7773.37175          1031.32546          1034.27632           847.03414          2126.24877          2417.13590          1461.76958          1582.00606          2130.66394          2524.91947           543.96871          6750.77280          1673.45930          2570.38332           933.13126          1152.16510          4151.03225          2832.77560           803.60618          1190.36302          3829.91600           586.02586           537.17002          1341.84449          2539.57137          5233.22143          1496.39326          6580.27063          1459.40762          1950.85297          1487.85192          1171.05623           426.46548           741.12296          2994.21031           609.40401          4135.06835           652.85830          3245.39824           864.16151          1021.63984          1736.92544          2098.32749          3450.48667          5292.65688          2427.05774          1486.63790          1783.25756          1237.59903          5318.99104          6962.20427          2027.59628          1212.92491          3285.53767           677.30804          1112.23688           800.60828          2874.86656          1125.56295           959.35208           505.68594           651.80325          3723.85799          1148.82146           714.13880          5589.84115          4088.44921          2148.78309          1484.32192          6994.26422           762.24811          3084.46900          3061.37058          2247.78515          1303.52868          3007.47539          5184.23233          1747.58886           473.08811           695.71952           774.20731          2009.34554          1746.03364           732.24242           784.67061          5955.56347           852.68818          1269.81386          1745.12048          4190.09814          5328.09570           514.62924          1250.80731           861.33224           967.53358          1824.89845           756.94142           802.93146          1440.26614           736.19341           630.09783           382.96457           834.39174          3223.29971           492.51286          3135.83552          1644.08912          2129.27565          1593.87685          2192.00954          1500.82403           391.07993          4796.46280          1639.51641          2008.78789          2209.37798          2257.46961          5843.39447          1116.98196          5109.36639           525.71311           629.99156          1678.24777          1137.70254          7099.98779          2422.54694           970.94063          1672.04929          4159.17142          3543.03071           575.29825          4894.70223          1300.06736          2905.32828          1145.63581          3647.76353          4020.51128           508.49245          3362.18813          3974.84699          2644.52336          5996.55732           785.64852           729.80439          1130.49114          2545.39047           549.32656          9704.18076          3950.54389           565.56685          2008.08223          1930.48182          1992.85734           748.85130          1123.94072         13806.37229           686.23239          2577.03066          1356.84644           546.85413           892.13455          2830.12941          5322.56983          6109.38301          1841.41365          1971.05634          2428.41711          4200.12526           723.18777          1569.67731          2332.05200          1891.25932          5494.49594           658.78457          1127.95079          2722.21059           831.06461          3458.47928          2819.01865          6296.17595          3524.09324          1450.72084           993.17322           647.47733          5818.14788          6788.25840          2453.61715           249.85937           332.70968           903.80720           931.04018          5815.03086          1365.46495          1731.49343          3813.29730          2341.54519          6451.45111          5903.37557           351.33398           525.64415           786.57736          1277.68125           643.27986          4086.38850          4450.81062          1472.13942           752.71422          1035.44514          2508.38254          3557.86390          2844.64100          2176.66275           983.69645          3848.37031          7146.89808           538.87576           667.86697          1748.02385          7341.69188          2425.01989          3145.72298          4441.54745           851.36843          2013.50768          4113.97671           526.09433          1432.40467          1074.89837          6219.21014           926.43145          1660.38401          3189.69808          4960.87134          5282.95708          5545.50426          4838.32281          4219.52460          1693.52483           952.05843          3301.99773         10650.35405           668.92261          2594.88704          3097.46646           277.45357          2138.00244          3951.64026          2834.78807           524.40702          4694.89973           748.85847          3658.36555          4095.49281          1813.22330           718.83947          2839.19827          4144.93169          5409.88098          5647.10597          5075.38069           584.37971           692.54487          1464.22639          4621.79320          1290.00174          3038.45310          1097.67528           618.704