# vtk DataFile Version 3.0
Output from R2
ASCII
DATASET UNSTRUCTURED_GRID
POINTS       1414 double
     0.00000  2968.10000   0.
     1.54000  2966.60000   0.
     3.08000  2964.90000   0.
     4.61000  2964.10000   0.
     6.15000  2963.30000   0.
     7.69000  2962.60000   0.
     9.23000  2961.50000   0.
    10.76000  2960.70000   0.
    12.30000  2960.00000   0.
    13.84000  2959.30000   0.
    15.38000  2958.70000   0.
    16.91000  2958.10000   0.
    18.45000  2957.30000   0.
    19.99000  2956.60000   0.
    21.52000  2955.80000   0.
    23.06000  2955.00000   0.
    24.60000  2954.30000   0.
    26.14000  2953.50000   0.
    27.68000  2952.80000   0.
    29.21000  2951.90000   0.
    30.75000  2951.10000   0.
    32.29000  2950.20000   0.
    33.83000  2949.50000   0.
    35.36000  2948.70000   0.
    36.90000  2948.10000   0.
    38.44000  2947.30000   0.
    39.98000  2946.70000   0.
    41.51000  2946.10000   0.
    43.05000  2945.50000   0.
    44.59000  2945.10000   0.
    46.13000  2944.50000   0.
    47.66000  2944.10000   0.
    49.20000  2943.60000   0.
    50.74000  2943.40000   0.
    52.28000  2943.00000   0.
    53.81000  2942.50000   0.
    55.35000  2942.10000   0.
    56.89000  2941.60000   0.
    58.43000  2941.00000   0.
    59.96000  2940.60000   0.
    61.50000  2940.10000   0.
    63.04000  2939.50000   0.
    64.58000  2939.10000   0.
    66.11000  2939.20000   0.
    67.65000  2939.20000   0.
    69.19000  2939.10000   0.
    70.73000  2938.90000   0.
    72.26000  2938.60000   0.
    73.80000  2938.30000   0.
    75.34000  2938.50000   0.
    76.88000  2938.70000   0.
    78.41000  2938.60000   0.
    79.95000  2938.80000   0.
    81.49000  2938.90000   0.
    83.03000  2939.10000   0.
    84.56000  2939.10000   0.
     3.42000  2957.55000   0.
     8.97000  2954.51000   0.
    14.52000  2951.86000   0.
    20.07000  2949.38000   0.
    25.63000  2946.59000   0.
    31.18000  2943.67000   0.
    36.73000  2940.99000   0.
    42.28000  2938.62000   0.
    47.83000  2936.87000   0.
    53.39000  2935.46000   0.
    58.94000  2933.69000   0.
    64.49000  2931.95000   0.
    70.04000  2931.81000   0.
    75.60000  2931.36000   0.
    81.15000  2931.70000   0.
     0.51333  2967.60000   0.
     1.02667  2967.10000   0.
     2.05333  2966.03333   0.
     2.56667  2965.46667   0.
     3.59000  2964.63333   0.
     4.10000  2964.36667   0.
     5.12333  2963.83333   0.
     5.63667  2963.56667   0.
     6.66333  2963.06667   0.
     7.17667  2962.83333   0.
     8.20333  2962.23333   0.
     8.71667  2961.86667   0.
     9.74000  2961.23333   0.
    10.25000  2960.96667   0.
    11.27333  2960.46667   0.
    11.78667  2960.23333   0.
    12.81333  2959.76667   0.
    13.32667  2959.53333   0.
    14.35333  2959.10000   0.
    14.86667  2958.90000   0.
    15.89000  2958.50000   0.
    16.40000  2958.30000   0.
    17.42333  2957.83333   0.
    17.93667  2957.56667   0.
    18.96333  2957.06667   0.
    19.47667  2956.83333   0.
    20.50000  2956.33333   0.
    21.01000  2956.06667   0.
    22.03333  2955.53333   0.
    22.54667  2955.26667   0.
    23.57333  2954.76667   0.
    24.08667  2954.53333   0.
    25.11333  2954.03333   0.
    25.62667  2953.76667   0.
    26.65333  2953.26667   0.
    27.16667  2953.03333   0.
    28.19000  2952.50000   0.
    28.70000  2952.20000   0.
    29.72333  2951.63333   0.
    30.23667  2951.36667   0.
    31.26333  2950.80000   0.
    31.77667  2950.50000   0.
    32.80333  2949.96667   0.
    33.31667  2949.73333   0.
    34.34000  2949.23333   0.
    34.85000  2948.96667   0.
    35.87333  2948.50000   0.
    36.38667  2948.30000   0.
    37.41333  2947.83333   0.
    37.92667  2947.56667   0.
    38.95333  2947.10000   0.
    39.46667  2946.90000   0.
    40.49000  2946.50000   0.
    41.00000  2946.30000   0.
    42.02333  2945.90000   0.
    42.53667  2945.70000   0.
    43.56333  2945.36667   0.
    44.07667  2945.23333   0.
    45.10333  2944.90000   0.
    45.61667  2944.70000   0.
    46.64000  2944.36667   0.
    47.15000  2944.23333   0.
    48.17333  2943.93333   0.
    48.68667  2943.76667   0.
    49.71333  2943.53333   0.
    50.22667  2943.46667   0.
    51.25333  2943.26667   0.
    51.76667  2943.13333   0.
    52.79000  2942.83333   0.
    53.30000  2942.66667   0.
    54.32333  2942.36667   0.
    54.83667  2942.23333   0.
    55.86333  2941.93333   0.
    56.37667  2941.76667   0.
    57.40333  2941.40000   0.
    57.91667  2941.20000   0.
    58.94000  2940.86667   0.
    59.45000  2940.73333   0.
    60.47333  2940.43333   0.
    60.98667  2940.26667   0.
    62.01333  2939.90000   0.
    62.52667  2939.70000   0.
    63.55333  2939.36667   0.
    64.06667  2939.23333   0.
    65.34500  2939.15000   0.
    66.88000  2939.20000   0.
    68.42000  2939.15000   0.
    69.70333  2939.03333   0.
    70.21667  2938.96667   0.
    71.24000  2938.80000   0.
    71.75000  2938.70000   0.
    72.77333  2938.50000   0.
    73.28667  2938.40000   0.
    74.31333  2938.36667   0.
    74.82667  2938.43333   0.
    75.85333  2938.56667   0.
    76.36667  2938.63333   0.
    77.64500  2938.65000   0.
    78.92333  2938.66667   0.
    79.43667  2938.73333   0.
    80.72000  2938.85000   0.
    82.00333  2938.96667   0.
    82.51667  2939.03333   0.
    83.79500  2939.10000   0.
     0.08400  2959.57200   0.
     1.19600  2958.89800   0.
     2.30800  2958.22400   0.
     4.53000  2956.94200   0.
     5.64000  2956.33400   0.
     6.75000  2955.72600   0.
     7.86000  2955.11800   0.
    10.35750  2953.84750   0.
    11.74500  2953.18500   0.
    13.13250  2952.52250   0.
    15.90750  2951.24000   0.
    17.29500  2950.62000   0.
    18.68250  2950.00000   0.
    21.18200  2948.82200   0.
    22.29400  2948.26400   0.
    23.40600  2947.70600   0.
    24.51800  2947.14800   0.
    26.74000  2946.00600   0.
    27.85000  2945.42200   0.
    28.96000  2944.83800   0.
    30.07000  2944.25400   0.
    32.56750  2943.00000   0.
    33.95500  2942.33000   0.
    35.34250  2941.66000   0.
    38.11750  2940.39750   0.
    39.50500  2939.80500   0.
    40.89250  2939.21250   0.
    43.66750  2938.18250   0.
    45.05500  2937.74500   0.
    46.44250  2937.30750   0.
    49.22000  2936.51750   0.
    50.61000  2936.16500   0.
    52.00000  2935.81250   0.
    54.77750  2935.01750   0.
    56.16500  2934.57500   0.
    57.55250  2934.13250   0.
    60.32750  2933.25500   0.
    61.71500  2932.82000   0.
    63.10250  2932.38500   0.
    65.87750  2931.91500   0.
    67.26500  2931.88000   0.
    68.65250  2931.84500   0.
    71.43000  2931.69750   0.
    72.82000  2931.58500   0.
    74.21000  2931.47250   0.
    76.98750  2931.44500   0.
    78.37500  2931.53000   0.
    79.76250  2931.61500   0.
    82.53750  2931.75500   0.
    83.92500  2931.81000   0.
     6.60134  2937.05984   0.
    20.80435  2932.52560   0.
     3.78758  2946.36592   0.
    15.48523  2940.98228   0.
    29.30091  2934.50364   0.
    23.90594  2939.46561   0.
    40.87322  2931.62711   0.
     1.03219  2951.87344   0.
    10.83406  2946.32292   0.
    20.42668  2943.42459   0.
    48.80952  2930.83467   0.
    35.50309  2935.49258   0.
     7.54365  2949.73854   0.
    28.57967  2939.84283   0.
    15.90963  2945.83181   0.
    44.30452  2933.27820   0.
    -0.12722  2955.42655   0.
    24.47411  2943.04615   0.
     4.45051  2952.86019   0.
    40.01017  2935.22543   0.
    52.75593  2931.58993   0.
    13.75183  2934.27842   0.
    32.31862  2938.44653   0.
     0.40990  2931.04902   0.
    19.20708  2946.27332   0.
    57.19103  2930.55709   0.
    -0.97178  2947.27328   0.
    19.39705  2939.49643   0.
    11.08068  2950.12444   0.
    32.86215  2930.47012   0.
     7.41320  2941.82707   0.
    13.76382  2948.77946   0.
    27.17579  2942.79365   0.
     7.27112  2952.68663   0.
     2.71547  2954.94653   0.
    22.91159  2945.17994   0.
     2.00816  2941.86911   0.
    24.73355  2934.79062   0.
    47.86753  2934.00196   0.
    50.62083  2933.29089   0.
    60.15732  2930.28185   0.
    37.65425  2937.53830   0.
    44.64836  2929.77041   0.
    10.93416  2939.02064   0.
     4.26476  2949.76242   0.
    36.78915  2931.78219   0.
     7.36345  2946.13476   0.
    30.92470  2941.06806   0.
     6.19921  2931.10091   0.
    35.16618  2938.51604   0.
    16.36294  2929.87801   0.
    13.43632  2943.77014   0.
    42.64967  2935.50406   0.
    26.89596  2931.23775   0.
     1.59760  2936.73753   0.
    17.19200  2948.13905   0.
    -0.61497  2957.60981   0.
    26.49360  2937.36117   0.
     9.56799  2951.50953   0.
    17.55858  2943.77119   0.
    55.26825  2932.33039   0.
    22.03247  2936.46128   0.
    16.10828  2937.24515   0.
    22.48452  2941.40733   0.
    20.86327  2946.43955   0.
    29.71126  2937.35408   0.
    32.14062  2935.59882   0.
    45.26358  2935.44707   0.
    29.19256  2942.39482   0.
    25.22337  2944.48902   0.
    25.77440  2940.40763   0.
     5.12787  2951.33100   0.
     9.72036  2943.07255   0.
     0.63027  2944.64860   0.
     5.15669  2954.13690   0.
    33.80274  2940.56791   0.
     1.57076  2956.41210   0.
     9.31000  2947.97928   0.
     9.87726  2933.53233   0.
    53.60824  2932.85261   0.
    40.63972  2936.89193   0.
    13.47285  2946.23828   0.
    37.68088  2934.75035   0.
    46.32767  2931.88185   0.
    18.64740  2941.16071   0.
    13.09413  2950.32980   0.
    18.01744  2935.92389   0.
     0.55332  2948.73049   0.
     5.35766  2947.55011   0.
    42.44669  2933.52960   0.
    57.75733  2932.24094   0.
    23.68300  2931.83870   0.
    19.94397  2947.74183   0.
    61.81887  2931.15328   0.
[...]
POINT_DATA      1414
CELL_DATA      2568
SCALARS Resistivity(ohm.m) double 1
LOOKUP_TABLE default
          1106.56025          1875.90969          2501.40747          1069.34485           573.97438          2340.72356          1205.65242          1356.20988          1748.63524          2206.29017           742.12788          2122.89675           637.55515          2388.90579          2369.90559          1868.28652          1683.88639           453.04199           505.51721          2251.15754          1143.45503          1926.11417          1274.97413           612.06608          2029.21955           511.91957           262.32341          2326.86612          2294.35096          2495.19346           530.80316           516.66352          1779.61129           389.28553           362.01117          1607.73267           679.45490           925.02702          1226.49254          1474.42911          1932.41058           669.17801           470.16673          2398.02959           334.78007           413.06542          3031.96855           788.69627           636.30893           887.36445          2476.45451          2013.92276           929.58667          1685.23553          2480.88642           900.02696           357.43274          2427.88286           454.46138           994.27893           602.90044          2270.99871           450.96171          1820.80138           267.43385          1642.82626          2277.54330          2161.79380           288.62902           732.62375           501.04861           727.49075          2191.32918           396.56793           321.23931          2942.68415          1399.85783           450.38018           341.16893          2806.92989          2589.26405          1287.86907           439.27165           430.48237          2206.98041           795.12137           333.90896          2199.33176           811.18028          2009.92454          1003.91804           363.02238          2381.93250           370.43689          1771.56372          2156.29081           577.67972          1114.44069          2302.41312           967.38248          1586.54572           599.88624           679.45234           700.74403          1007.30828          1807.76902           556.77011           877.62410          2269.92779          1191.93971           388.27173          1024.21472          2562.92162          1863.47770          2152.22785          1345.50430           951.38425          1593.96903           464.87405           315.70212          2260.60599          1382.41655          3073.95872           748.59310           538.21303          2235.46585          2466.17222          3320.63991          1821.48824          1296.99013          2236.51151          1066.03379          1244.13308          2344.65046           800.18313          2824.51275           389.66512          1784.67517           977.20059          1408.64962          1686.07162           567.07225           661.15962          1217.22880          1774.50711           621.03904           478.27558          1506.39557          2114.40833           526.81912          2524.42753          2066.91519           878.37389           648.86708          2299.10134           291.23638          1472.77713           391.85621          2317.15920          1303.26358          1058.55009           559.51043          2374.87181           482.52997          2395.57455           621.10497          1341.90923          1754.02992          2027.40998          1863.84786           675.64545           765.28221           726.78350           272.70239           424.59802           835.75154           814.65095          3473.08791          2662.61549          1047.33692          2293.35787          1255.21405          2165.80697           757.14769           605.28423           945.01823           863.15971           685.33283           786.75119          2525.47635          1217.57720          2458.62741           616.58633          2662.49139           271.50121           532.06654          2570.60625          2240.27826          1187.11006           432.65401           290.35980           752.32917          1807.02738          1507.32284          1725.31827          1010.38291          3714.45516          2514.28257           402.94831          2449.26243          1330.29058           651.02453           438.98214           333.43574           569.03637          1148.42697          2420.62203           492.34133          1182.44028           561.16291           799.23578          1227.04006          1037.08299           341.14164           673.02768           659.78206           397.60144           565.51923          1319.08771           329.41683           930.59413          2090.14217          1419.12775          2901.50954          2301.88044          1537.66414          2345.66580          1280.15123          1298.52303          1374.85888          2623.22446           664.21211           941.32795           408.11816          2465.55091           269.07120          1993.42671           512.42055           454.33569          2305.94578           260.70564          2063.88439          1641.80688           703.63639          2176.70108           917.42418           634.52063           738.94589           714.90771          2828.39643           640.84878          2392.70716           497.99525           440.10388           460.61019          1532.04596           355.04365          2373.78560           893.22602          2577.19448           884.55015          2205.42945          2455.43912          2306.49202           456.53866          1684.34855          2404.25658           439.28647           647.86348           633.44202           444.05238          1438.32161           279.18950           896.65336           831.37508          2443.38983           491.81898          2276.38541           654.62799           490.99369           840.03935           306.90158          2345.13314           662.56070          2118.36687          2283.62496          1363.26154           576.78420           444.21238           672.28984           942.25749           464.19327          2369.23227          2580.77569           388.71074          1956.81828          1337.63331          1597.86319          2068.34334           399.62071           702.03998           635.29324           292.60209          2318.89684           720.45146           333.07557           523.66881          1011.91659          2720.89150           475.97550          3221.99402           397.13155           934.50996           472.73870           571.83090          1191.08421           475.17267          1446.24838          1016.11501          2892.09009          1884.17346          2325.25682           515.66711          1477.90544           349.29197           406.16970           618.36168           646.86161          3153.54679           545.61556          2280.67656           427.28172          2285.10616           451.96999           620.88533          1944.88050          1103.63028          1075.02988           463.59168          2297.20785           465.56097          2505.94882           788.04264           371.16586           486.94633          2237.63517           530.12324          1520.02147           316.87451           392.19770           751.89985          1597.83926           831.08805           522.19239          1387.66990           490.21670           356.30448          2289.11667          1728.69614          2634.53662           434.36398          1332.73648          1446.27686           902.36145           295.88528          2689.69510           411.19925           470.04591           417.42612          2190.26822          1381.42191           440.64186          1898.22688          2382.18757           268.15389          1383.77859           628.18530          1210.13711           461.04981          1385.63875           702.26025           337.52967          1489.09433          1288.47567           449.65870           747.90064           567.31887          1193.35142          1863.02698           915.94334           631.44358           624.60693          1328.24590          1498.49960          1279.57210           856.18118           517.96127           918.50417          2310.11496          1657.05230          1451.63779          2299.33381           902.83045           633.73697          1050.38130          2313.53878           637.29964           865.31348           694.02178          1724.31962           881.75103           386.88026          2298.32696          1303.56836          1218.99444           281.45381          1503.53836           628.35647          1444.97324           490.68232          1281.43502           481.19702           442.99885          1960.43872           975.72308          1515.31084          1473.74256           646.03686          2030.68148          1158.41931          3533.45550           596.55709          1153.28702          2187.12576          1124.23805          1007.57620          1316.79377          1191.89099          3944.06603           845.13196          3326.60977          1572.02051          1335.40959          1079.81500          1562.81626           816.72715          2269.58099           901.93702          1234.90157           429.92260          2052.89729          1325.02984           870.93873          1167.76258          2346.30228           821.75913           787.02534          1044.79238          1620.15872          1632.69259           773.10381          1962.38838           853.57297           287.87069          2073.22249          3691.52258           942.65813           437.81452          1377.66492           725.67414          1011.12928          1936.69954           536.24157           551.24690          2303.20827          2735.70612          1109.50821           358.74739           637.26413           778.84254          1276.44546          1014.66094          1038.57250          1587.03225           804.01758          1526.04421           778.71815          1005.16956          2539.27293          1952.23330           648.54985           327.93910           638.95640          1197.73989           785.40990          1146.15362          3467.89880          1232.18612           363.58340           509.11189          1127.09212          1143.55632           842.35629           405.70772          3087.29355          1440.55173           371.10136          3176.08699          2313.93472           412.88641          1348.18301          1232.53209          1038.38502          1064.12435          1032.72219           554.87961          1481.56782          1498.43300          1526.36722          1142.20843           723.46362          1661.91224           448.56717          1077.03339           580.94582           425.48797           743.41980          1767.26430          1057.28530           913.61049           439.61975           391.94939          1778.98198          1101.14157          4118.52290          4135.80470          3614.94659          2433.67179          2139.51089          2229.25646          3253.02776          5117.48110           664.63562          4429.97625           493.77866          1105.43840          1356.63956           696.82731          3291.11423          4698.66431          1399.58001           454.26715          2152.94383          2767.49967           785.41092           957.73435          1520.51136          4594.18320          1500.34433          2063.76660           930.82453           652.98533          1374.54107          1658.77194           490.82903          3782.25084           481.23395          1506.13222          5456.02064          4401.91856          1786.11237          4660.00394           293.53739           803.90000           474.42857          2072.53358          2641.69805          1860.54268          3133.46880          1940.61101          2431.47021           736.10208          1532.68864          1299.36107          1897.53442          8720.77686          3791.53063           941.41092          4818.31097          4191.95173           845.03931           595.70088          4800.13561          2641.32066          4671.17921          4636.52107          1546.18637           894.75491           599.39658           575.19350           825.44310          4126.66961          1721.59536          1029.37875          1612.15640           337.60724          1064.92226          1916.46556          3647.96967          1105.95135           929.99618           657.02493           891.06683          1705.50397          1563.43605           886.70290          3593.18894          2840.37786          3543.44253          3714.75031          5722.05892          4175.90360          2758.14788           576.82711          4222.22413          1357.58509          1689.98182           619.21217          1474.00937           948.32698           388.73817          5664.62264          5358.47754          1577.23124          1689.79390          2842.26251          2553.27025          3095.33574          2990.98639           934.27233          1482.94332           635.50800           851.19889           377.06493           490.86385           766.37410           599.28895          2183.70187          4316.40845          3718.25003          1530.32482          2419.96336          1466.26994          1785.62943          7832.22520          4798.86075          2074.62402           399.83033           557.25166          4777.86565           749.85284          3791.85602          4511.16158          1042.70132          2663.58086           752.51268           937.00133          1055.00427          2605.22085          2665.24897          2747.68611           671.20424           504.57812          1145.48534           368.84857           612.36432           454.39761          3964.85329          5460.84876           500.73708          2971.71911           985.91171          2392.60388          1241.61216           688.27356           689.62776           732.58550           691.04426          2154.44204           831.42066          1673.28441           767.98700          2228.56020          1904.20026          4169.59928          2645.98874           771.62910           605.96457           333.15825          3403.92639           816.05293           804.13523          1307.66874          2635.29769           709.02755           807.48601           546.63981          1311.93121          1393.82163          1745.87456          1397.56535           664.15922           771.66844           683.65648          2458.43534          1933.36981          1325.26679          7541.59948          1048.19581           983.98985           876.99762          1880.76682          2554.25038          1492.39195          1600.14523          1921.94579          2677.11106           544.16372          7214.35424          1629.16238          2632.54416           895.67440          1152.68479          4217.92094          2804.41178           795.79099          1148.35034          3690.59470           546.26889           551.50855          1352.25781          2662.91935          5347.75881          1536.59677          6769.05281          1419.82257          1880.09944          1553.83430          1202.95208           462.09567           767.48850          2974.85002           641.87857          4331.59446           661.76383          3352.05678           834.16261           890.85713          1631.02115          2150.42423          3316.02875          5189.71499          2489.03890          1542.20322          1842.95978          1258.64335          5489.38710          7115.40431          2114.64523          1110.41141          2977.60754           674.57007          1122.12795           852.98415          2877.88858          1139.83557          1007.89902           521.80803           655.68884          3653.40089          1116.94337           749.90612          5900.58066          4103.74068          2309.86910          1458.23625          7128.96963           809.97585          2939.73169          3070.82218          2271.51311          1252.19719          3119.98272          5242.50498          1799.82047           465.96455           709.69172           820.90762          1969.70919          1806.19306           725.43581           739.30679          6186.32241           829.47351          1221.76923          1838.90308          4185.73245          5220.13734           490.12810          1354.23071           861.43254          1045.20874          1926.12201           759.97165           822.18847          1468.93743           776.84104           629.26971           389.54952           815.44203          3142.51529           488.15842          3068.10928          1747.63639          2098.01240          1515.21904          2049.87999          1597.56595           396.78459          4457.99324          1616.45428          2075.47341          2082.81180          2289.26297          5683.89869          1133.85834          5282.67342           564.29163           652.67551          1629.02170          1159.78303          7253.54451          2490.54990           942.78868          1689.13205          4193.62593          3497.87054           587.01029          5035.21355          1419.11333          2883.79237          1138.50288          3684.19065          3951.17682           492.99726          3418.99860          3828.36081          2709.41721          5833.34383           809.74186           748.27249          1152.47293          2580.22062           505.83933          9711.39603          3777.77663           603.54965          1890.90648          1874.57475          2057.89513           761.75790          1130.49995         13209.04002           684.37334          2481.43942          1393.92925           521.56525           857.56052          2671.45263          5445.36167          6005.69166          1791.64819          2096.04804          2545.21024          4334.85468           728.02236          1507.57646          2323.70854          1890.47209          5540.52295           656.80821          1145.71733          2827.54960           835.79781          3802.53360          2731.45812          6518.99746          3148.31799          1377.50191          1076.02670           652.19770          5616.84725          6979.19491          2213.44805           263.47207           354.82673           884.05829           899.68089          6015.06716          1414.21358          1946.22282          3649.75817          2392.45459          6107.79121          5790.49835           374.07392           574.72812           788.68040          1178.68346           647.59519          4163.38449          4271.64948          1464.33298           747.78096          1032.63542          2405.33493          3637.99783          2647.61900          2140.99286           959.96750          4105.87637          7489.43279           509.19626           668.36010          1858.99286          7365.62400          2233.28777          3028.15150          4616.81137           829.76565          1962.87978          4158.03572           524.73994          1434.06336          1082.18501          6199.61136           920.68436          1755.10893          3062.02550          4897.79326          5221.52900          5751.15050          4766.18080          4331.91016          1777.55656           923.79160          3314.87471         10759.03191           671.28715          2583.61641          3031.14347           287.51117          2273.30749          3788.72523          2800.38569           481.33274          4580.44004           775.21255          3585.97347          4181.36479          1872.87457           746.82171          3025.55813          3922.45957          5358.60166          5834.42248          5250.74927           590.68715           702.09858          1394.59387          4900.66807          1239.87444          2900.89499           995.69317           613.004