# vtk DataFile Version 3.0
Output from R2
ASCII
DATASET UNSTRUCTURED_GRID
POINTS       1414 double
     0.00000  2968.10000   0.
     1.54000  2966.60000   0.
     3.08000  2964.90000   0.
     4.61000  2964.10000   0.
     6.15000  2963.30000   0.
     7.69000  2962.60000   0.
     9.23000  2961.50000   0.
    10.76000  2960.70000   0.
    12.30000  2960.00000   0.
    13.84000  2959.30000   0.
    15.38000  2958.70000   0.
    16.91000  2958.10000   0.
    18.45000  2957.30000   0.
    19.99000  2956.60000   0.
    21.52000  2955.80000   0.
    23.06000  2955.00000   0.
    24.60000  2954.30000   0.
    26.14000  2953.50000   0.
    27.68000  2952.80000   0.
    29.21000  2951.90000   0.
    30.75000  2951.10000   0.
    32.29000  2950.20000   0.
    33.83000  2949.50000   0.
    35.36000  2948.70000   0.
    36.90000  2948.10000   0.
    38.44000  2947.30000   0.
    39.98000  2946.70000   0.
    41.51000  2946.10000   0.
    43.05000  2945.50000   0.
    44.59000  2945.10000   0.
    46.13000  2944.50000   0.
    47.66000  2944.10000   0.
    49.20000  2943.60000   0.
    50.74000  2943.40000   0.
    52.28000  2943.00000   0.
    53.81000  2942.50000   0.
    55.35000  2942.10000   0.
    56.89000  2941.60000   0.
    58.43000  2941.00000   0.
    59.96000  2940.60000   0.
    61.50000  2940.10000   0.
    63.04000  2939.50000   0.
    64.58000  2939.10000   0.
    66.11000  2939.20000   0.
    67.65000  2939.20000   0.
    69.19000  2939.10000   0.
    70.73000  2938.90000   0.
    72.26000  2938.60000   0.
    73.80000  2938.30000   0.
    75.34000  2938.50000   0.
    76.88000  2938.70000   0.
    78.41000  2938.60000   0.
    79.95000  2938.80000   0.
    81.49000  2938.90000   0.
    83.03000  2939.10000   0.
    84.56000  2939.10000   0.
     3.42000  2957.55000   0.
     8.97000  2954.51000   0.
    14.52000  2951.86000   0.
    20.07000  2949.38000   0.
    25.63000  2946.59000   0.
    31.18000  2943.67000   0.
    36.73000  2940.99000   0.
    42.28000  2938.62000   0.
    47.83000  2936.87000   0.
    53.39000  2935.46000   0.
    58.94000  2933.69000   0.
    64.49000  2931.95000   0.
    70.04000  2931.81000   0.
    75.60000  2931.36000   0.
    81.15000  2931.70000   0.
     0.51333  2967.60000   0.
     1.02667  2967.10000   0.
     2.05333  2966.03333   0.
     2.56667  2965.46667   0.
     3.59000  2964.63333   0.
     4.10000  2964.36667   0.
     5.12333  2963.83333   0.
     5.63667  2963.56667   0.
     6.66333  2963.06667   0.
     7.17667  2962.83333   0.
     8.20333  2962.23333   0.
     8.71667  2961.86667   0.
     9.74000  2961.23333   0.
    10.25000  2960.96667   0.
    11.27333  2960.46667   0.
    11.78667  2960.23333   0.
    12.81333  2959.76667   0.
    13.32667  2959.53333   0.
    14.35333  2959.10000   0.
    14.86667  2958.90000   0.
    15.89000  2958.50000   0.
    16.40000  2958.30000   0.
    17.42333  2957.83333   0.
    17.93667  2957.56667   0.
    18.96333  2957.06667   0.
    19.47667  2956.83333   0.
    20.50000  2956.33333   0.
    21.01000  2956.06667   0.
    22.03333  2955.53333   0.
    22.54667  2955.26667   0.
    23.57333  2954.76667   0.
    24.08667  2954.53333   0.
    25.11333  2954.03333   0.
    25.62667  2953.76667   0.
    26.65333  2953.26667   0.
    27.16667  2953.03333   0.
    28.19000  2952.50000   0.
    28.70000  2952.20000   0.
    29.72333  2951.63333   0.
    30.23667  2951.36667   0.
    31.26333  2950.80000   0.
    31.77667  2950.50000   0.
    32.80333  2949.96667   0.
    33.31667  2949.73333   0.
    34.34000  2949.23333   0.
    34.85000  2948.96667   0.
    35.87333  2948.50000   0.
    36.38667  2948.30000   0.
    37.41333  2947.83333   0.
    37.92667  2947.56667   0.
    38.95333  2947.10000   0.
    39.46667  2946.90000   0.
    40.49000  2946.50000   0.
    41.00000  2946.30000   0.
    42.02333  2945.90000   0.
    42.53667  2945.70000   0.
    43.56333  2945.36667   0.
    44.07667  2945.23333   0.
    45.10333  2944.90000   0.
    45.61667  2944.70000   0.
    46.64000  2944.36667   0.
    47.15000  2944.23333   0.
    48.17333  2943.93333   0.
    48.68667  2943.76667   0.
    49.71333  2943.53333   0.
    50.22667  2943.46667   0.
    51.25333  2943.26667   0.
    51.76667  2943.13333   0.
    52.79000  2942.83333   0.
    53.30000  2942.66667   0.
    54.32333  2942.36667   0.
    54.83667  2942.23333   0.
    55.86333  2941.93333   0.
    56.37667  2941.76667   0.
    57.40333  2941.40000   0.
    57.91667  2941.20000   0.
    58.94000  2940.86667   0.
    59.45000  2940.73333   0.
    60.47333  2940.43333   0.
    60.98667  2940.26667   0.
    62.01333  2939.90000   0.
    62.52667  2939.70000   0.
    63.55333  2939.36667   0.
    64.06667  2939.23333   0.
    65.34500  2939.15000   0.
    66.88000  2939.20000   0.
    68.42000  2939.15000   0.
    69.70333  2939.03333   0.
    70.21667  2938.96667   0.
    71.24000  2938.80000   0.
    71.75000  2938.70000   0.
    72.77333  2938.50000   0.
    73.28667  2938.40000   0.
    74.31333  2938.36667   0.
    74.82667  2938.43333   0.
    75.85333  2938.56667   0.
    76.36667  2938.63333   0.
    77.64500  2938.65000   0.
    78.92333  2938.66667   0.
    79.43667  2938.73333   0.
    80.72000  2938.85000   0.
    82.00333  2938.96667   0.
    82.51667  2939.03333   0.
    83.79500  2939.10000   0.
     0.08400  2959.57200   0.
     1.19600  2958.89800   0.
     2.30800  2958.22400   0.
     4.53000  2956.94200   0.
     5.64000  2956.33400   0.
     6.75000  2955.72600   0.
     7.86000  2955.11800   0.
    10.35750  2953.84750   0.
    11.74500  2953.18500   0.
    13.13250  2952.52250   0.
    15.90750  2951.24000   0.
    17.29500  2950.62000   0.
    18.68250  2950.00000   0.
    21.18200  2948.82200   0.
    22.29400  2948.26400   0.
    23.40600  2947.70600   0.
    24.51800  2947.14800   0.
    26.74000  2946.00600   0.
    27.85000  2945.42200   0.
    28.96000  2944.83800   0.
    30.07000  2944.25400   0.
    32.56750  2943.00000   0.
    33.95500  2942.33000   0.
    35.34250  2941.66000   0.
    38.11750  2940.39750   0.
    39.50500  2939.80500   0.
    40.89250  2939.21250   0.
    43.66750  2938.18250   0.
    45.05500  2937.74500   0.
    46.44250  2937.30750   0.
    49.22000  2936.51750   0.
    50.61000  2936.16500   0.
    52.00000  2935.81250   0.
    54.77750  2935.01750   0.
    56.16500  2934.57500   0.
    57.55250  2934.13250   0.
    60.32750  2933.25500   0.
    61.71500  2932.82000   0.
    63.10250  2932.38500   0.
    65.87750  2931.91500   0.
    67.26500  2931.88000   0.
    68.65250  2931.84500   0.
    71.43000  2931.69750   0.
    72.82000  2931.58500   0.
    74.21000  2931.47250   0.
    76.98750  2931.44500   0.
    78.37500  2931.53000   0.
    79.76250  2931.61500   0.
    82.53750  2931.75500   0.
    83.92500  2931.81000   0.
     6.60134  2937.05984   0.
    20.80435  2932.52560   0.
     3.78758  2946.36592   0.
    15.48523  2940.98228   0.
    29.30091  2934.50364   0.
    23.90594  2939.46561   0.
    40.87322  2931.62711   0.
     1.03219  2951.87344   0.
    10.83406  2946.32292   0.
    20.42668  2943.42459   0.
    48.80952  2930.83467   0.
    35.50309  2935.49258   0.
     7.54365  2949.73854   0.
    28.57967  2939.84283   0.
    15.90963  2945.83181   0.
    44.30452  2933.27820   0.
    -0.12722  2955.42655   0.
    24.47411  2943.04615   0.
     4.45051  2952.86019   0.
    40.01017  2935.22543   0.
    52.75593  2931.58993   0.
    13.75183  2934.27842   0.
    32.31862  2938.44653   0.
     0.40990  2931.04902   0.
    19.20708  2946.27332   0.
    57.19103  2930.55709   0.
    -0.97178  2947.27328   0.
    19.39705  2939.49643   0.
    11.08068  2950.12444   0.
    32.86215  2930.47012   0.
     7.41320  2941.82707   0.
    13.76382  2948.77946   0.
    27.17579  2942.79365   0.
     7.27112  2952.68663   0.
     2.71547  2954.94653   0.
    22.91159  2945.17994   0.
     2.00816  2941.86911   0.
    24.73355  2934.79062   0.
    47.86753  2934.00196   0.
    50.62083  2933.29089   0.
    60.15732  2930.28185   0.
    37.65425  2937.53830   0.
    44.64836  2929.77041   0.
    10.93416  2939.02064   0.
     4.26476  2949.76242   0.
    36.78915  2931.78219   0.
     7.36345  2946.13476   0.
    30.92470  2941.06806   0.
     6.19921  2931.10091   0.
    35.16618  2938.51604   0.
    16.36294  2929.87801   0.
    13.43632  2943.77014   0.
    42.64967  2935.50406   0.
    26.89596  2931.23775   0.
     1.59760  2936.73753   0.
    17.19200  2948.13905   0.
    -0.61497  2957.60981   0.
    26.49360  2937.36117   0.
     9.56799  2951.50953   0.
    17.55858  2943.77119   0.
    55.26825  2932.33039   0.
    22.03247  2936.46128   0.
    16.10828  2937.24515   0.
    22.48452  2941.40733   0.
    20.86327  2946.43955   0.
    29.71126  2937.35408   0.
    32.14062  2935.59882   0.
    45.26358  2935.44707   0.
    29.19256  2942.39482   0.
    25.22337  2944.48902   0.
    25.77440  2940.40763   0.
     5.12787  2951.33100   0.
     9.72036  2943.07255   0.
     0.63027  2944.64860   0.
     5.15669  2954.13690   0.
    33.80274  2940.56791   0.
     1.57076  2956.41210   0.
     9.31000  2947.97928   0.
     9.87726  2933.53233   0.
    53.60824  2932.85261   0.
    40.63972  2936.89193   0.
    13.47285  2946.23828   0.
    37.68088  2934.75035   0.
    46.32767  2931.88185   0.
    18.64740  2941.16071   0.
    13.09413  2950.32980   0.
    18.01744  2935.92389   0.
     0.55332  2948.73049   0.
     5.35766  2947.55011   0.
    42.44669  2933.52960   0.
    57.75733  2932.24094   0.
    23.68300  2931.83870   0.
    19.94397  2947.74183   0.
    61.81887  2931.15328   0.
[...]
POINT_DATA      1414
CELL_DATA      2568
SCALARS Resistivity(ohm.m) double 1
LOOKUP_TABLE default
          1176.56088          1879.43546          2451.70414          1120.99357           502.98764          2367.01454          1249.57733          1492.73398          1762.24942          2253.84564           744.46094          2213.98720           579.87007          2280.85419          2246.61517          2017.85331          1702.19313           485.71591           421.42726          2418.28241          1150.96816          2062.19077          1358.16805           631.07341          1964.47856           478.57845           287.85322          2326.84941          2198.19950          2462.43916           439.90878           490.15083          1794.63841           390.83158           378.82558          1717.32124           721.59215           914.96604          1304.30403          1556.45429          1904.89849           663.31520           408.08623          2274.09552           320.52523           411.32429          2856.78314           792.81328           598.09921           894.96805          2541.50749          1945.50810           990.68842          1699.49742          2431.02078           867.16377           352.24639          2421.44621           415.09309          1073.80831           512.64925          2158.04216           486.46820          1978.89844           285.05644          1678.41581          2226.25846          2190.69465           294.52144           651.18964           458.64829           764.89782          2083.73750           382.43530           352.43090          2822.12070          1519.41288           475.46421           381.24572          2683.61078          2562.97513          1431.72235           394.14184           410.38342          2099.25856           722.36789           328.27725          2116.70659           836.90145          2051.61464          1037.76106           336.70761          2398.97201           400.35064          1862.94055          2052.25822           579.11522          1230.00929          2180.95607           976.49829          1670.84176           497.45390           571.67824           684.39426          1038.84660          1798.62247           481.50711           912.17281          2296.89633          1326.52519           424.36147          1070.54780          2442.39961          1948.25150          2062.15693          1416.28739           991.09706          1634.66298           394.88596           318.05544          2383.51531          1488.40015          2900.17120           676.42452           545.01460          2166.35901          2351.51209          3146.33866          1959.12724          1398.19636          2209.41289          1110.78914          1316.78502          2256.74276           783.21539          2725.75656           421.99965          1775.61941           981.19329          1475.01443          1728.14111           475.57236           550.46841          1300.23539          1777.43840           514.11406           412.72137          1588.65117          2038.39514           514.12203          2483.09547          1983.38745           893.11858           671.73652          2326.28394           323.46427          1645.90330           406.03914          2201.69637          1375.92614          1163.33171           464.52037          2291.51300           447.08760          2391.96501           532.85553          1420.16120          1893.37182          1979.24613          1840.36028           689.45965           722.46068           627.14481           286.17330           373.12165           889.43799           740.56973          3433.55988          2560.65987          1125.35498          2326.29528          1414.42582          2128.04197           670.90335           507.60798           928.19959           802.40755           576.79387           828.94586          2399.75122          1291.28273          2354.45037           519.60450          2550.17959           283.88755           442.63162          2498.90596          2239.28127          1280.16301           371.45190           328.05817           790.62089          1928.14337          1560.15300          1880.57640          1031.58787          3744.47580          2475.53454           354.07850          2441.81512          1409.88283           544.26833           375.50646           340.67416           570.79985          1228.02307          2290.67920           459.72078          1283.68127           459.70606           837.26941          1361.81117          1099.81981           356.88280           589.25551           568.15759           429.50784           477.05683          1392.77542           329.82908          1005.54856          2178.56605          1512.87544          2835.61374          2374.48339          1717.51721          2393.95699          1445.98288          1444.16389          1464.92383          2492.47723           612.47883           918.50963           379.22304          2396.26003           297.64521          2007.00198           452.74866           484.61974          2323.06539           291.72443          2176.35580          1811.49468           602.71575          2118.61260           935.54172           616.44821           640.46581           643.09172          2777.80371           555.29459          2395.26543           512.12103           391.46661           413.36176          1707.16892           358.34310          2401.39271           847.64737          2496.15329           952.57641          2285.61623          2362.53571          2303.59675           433.94601          1745.00437          2418.05239           450.88329           682.27711           628.72832           469.73507          1498.37338           301.17679           892.38626           872.65962          2432.51601           411.39910          2413.90502           580.68214           508.53635           890.06044           331.86666          2297.19398           582.57475          2058.16460          2358.25254          1502.42818           473.95643           404.38224           565.02251           956.73321           400.83404          2462.20019          2445.53746           404.48356          1904.63971          1411.80391          1647.76833          1996.89955           427.66538           608.42354           558.18798           293.16523          2388.33465           743.74282           355.84166           472.19411          1109.87666          2663.54611           436.12894          3158.25921           373.90533           961.00311           496.18819           470.30710          1267.29431           428.14760          1506.20914          1036.23346          2741.99922          1907.82856          2309.29018           449.86148          1645.04218           335.27368           361.87273           514.60901           549.56752          3049.04635           541.32282          2199.63437           456.79929          2250.12087           466.56835           511.42650          1893.53694          1204.42956          1108.97816           431.80524          2258.35935           488.82221          2372.36205           701.44007           405.26221           406.03892          2152.88701           447.38210          1670.13434           306.55068           350.85873           786.98283          1631.33900           857.46056           466.11268          1456.35555           448.43858           384.28362          2398.05704          1879.57973          2554.69747           463.43962          1403.15219          1517.69713           957.88192           302.91765          2547.39394           375.46279           462.62177           436.14475          2096.02860          1462.57256           474.85850          1867.62847          2357.55413           306.50938          1450.61627           529.81554          1362.62869           390.52814          1554.33633           627.67003           318.43442          1542.41924          1329.19377           471.73681           768.29810           506.49835          1317.05373          1834.19045           984.65931           539.30229           553.53138          1430.85166          1558.98112          1385.40517           801.97499           495.28021           887.03889          2368.33323          1767.02560          1590.33999          2201.95630           973.80116           652.56569          1067.82343          2469.31493           655.51047           885.14815           652.41680          1861.59862           942.23575           345.36145          2247.31009          1460.31576          1332.49960           288.44292          1653.37469           536.29264          1509.75477           502.38550          1397.40143           498.27388           468.16313          2042.27507          1020.03693          1583.86372          1597.25798           610.40439          1959.75213          1256.45836          3455.46672           607.63907          1228.41726          2213.10428          1187.36913          1075.45961          1388.32990          1272.24785          4050.79172           779.77126          3204.68360          1678.59624          1498.38086          1163.41398          1727.29709           769.78460          2150.97798           859.36099          1385.22546           454.42547          2015.31656          1419.70126           814.17718          1307.66972          2338.59139           759.83204           821.82805          1157.05220          1757.59423          1766.69384           801.52736          1935.84891           832.60922           301.63729          2051.08111          3751.45560          1024.50575           400.26645          1551.58892           672.03834          1008.75775          2045.46046           442.46029           553.43233          2305.61612          2665.28828          1240.05662           392.09230           672.62896           723.20267          1365.75280          1118.61391          1069.42214          1627.30720           723.25330          1577.32233           691.19630          1052.73022          2462.62225          1912.53960           632.49087           357.51809           555.76509          1316.73464           706.00330          1252.55997          3509.30955          1328.60113           331.96021           421.74340          1261.51276          1239.03416           834.56458           364.79736          3042.05761          1507.78874           337.81706          3172.95517          2288.04819           437.30388          1474.66086          1321.77014          1078.12693          1179.91353          1078.15956           479.02428          1660.40243          1551.11622          1573.04622          1265.81623           620.18124          1835.15228           487.12835          1180.01552           511.22413           453.46791           645.39665          1851.43249          1119.39199           876.14945           474.45479           359.42761          1835.74780          1177.44970          4239.78528          4417.51166          3615.26845          2194.77719          2089.84426          2164.54611          3462.33415          5065.42147           665.40016          4929.19168           487.60326          1142.98696          1453.51990           618.73471          4103.01880          4876.17187          1360.47220           423.29130          2029.19439          2821.99118           899.80749           908.73879          1490.38020          4615.22758          1402.96433          2787.88927           974.43017           562.36102          1490.91860          1709.93732           404.95265          3462.07309           521.64078          1547.80639          5461.61007          4311.17457          1940.77186          5124.80999           353.25501           888.08963           477.38258          1933.79302          2706.05684          1702.43752          2956.19899          1873.39478          2716.80198           842.61661          1559.82025          1253.16312          1894.24499          9071.88092          3825.81726          1047.16543          4979.26360          3662.89376           869.08683           702.41303          4826.09199          2924.99088          4726.61322          5065.56467          1613.29128           865.01586           669.77011           499.71032           835.08404          4244.91809          1570.80387          1053.25088          1661.79308           398.78759          1143.67975          2004.40348          3763.47173          1041.41667           907.38453           708.62211           908.42075          1644.99174          1622.96800           840.23772          3446.21104          3048.22862          3280.97182          3461.57140          6174.07551          4077.95089          2673.43154           509.44989          5198.26443          1310.17331          1562.48102           686.15133          1499.22902           970.24351           436.67150          6138.65002          5466.06805          1521.31441          1702.41024          2854.33279          2395.25812          3405.35188          3165.93487           927.45644          1276.22334           650.16312           786.51673           357.65442           528.24633           770.69846           586.92157          2059.00277          4107.46324          3613.52086          1437.35468          2233.22438          1578.28868          1747.58647          8079.58778          5008.31729          1987.07857           369.06659           616.44318          5005.65820           760.49802          4209.01195          4809.87000          1115.74341          2496.52195           745.29886           970.08201          1134.97214          2396.70378          2454.70323          2747.30792           657.55005           448.46844          1261.17530           424.48557           649.43927           402.04600          3774.94319          5421.78456           420.21319          3110.07543           919.58627          2739.57324          1395.04274           673.38043           684.54028           662.68364           656.17246          2074.46428           811.76671          1487.85397           761.35450          2535.54692          1942.03174          3800.47595          2868.32000           696.56905           655.64802           402.39031          3221.21784           780.05475           788.75399          1369.79263          2709.81528           680.36912           927.95308           568.64454          1337.58229          1242.76593          1584.12130          1304.71646           645.25895           825.13740           811.75984          2701.41175          1983.51311          1335.77027          7654.31776          1119.58847           850.00896           954.60084          1515.62112          2485.53623          1539.49840          1640.66723          1614.47045          2901.51668           645.06162          7912.89571          1339.38407          2747.99358           803.31097          1260.70704          3953.32940          2944.16762           814.09517          1152.28481          3562.64216           440.74639           558.58092          1338.24469          2987.10427          5446.80612          1595.48487          7099.89975          1259.65670          1778.79216          1529.13849          1351.73713           469.61559           960.77630          2910.70657           692.77958          4426.44007           639.79004          3163.54127           848.56843           744.78866          1548.63308          2208.70474          3083.71830          4999.07937          2832.04678          1689.45006          1782.41155          1342.24219          5862.30962          7275.94751          2104.09508          1064.80888          2934.28380           646.22422          1234.78737           928.59226          2662.08510          1267.64714          1116.88853           602.41161           642.15792          4055.17767           983.76182           837.67182          6131.96631          3914.79633          2593.27908          1530.08129          7270.88275           870.59513          2588.08501          2834.90305          2382.71175          1081.84227          3198.95481          5368.34380          1916.29882           397.77115           833.94766           917.78999          1783.90608          1732.27109           676.01361           679.37784          6522.07213           923.94360          1121.48030          2151.66323          4243.50902          4736.47190           429.53455          1493.84946           879.88096          1178.99911          1886.10817           755.21050           857.03828          1521.00334           813.46104           594.70098           366.42555           829.51525          2996.15881           493.78596          2922.67676          1871.97337          2062.24872          1430.08642          1981.11544          1622.28601           370.49910          3902.72544          1618.07881          2053.17869          1925.79504          2158.18699          4871.21242          1135.82609          5601.18704           639.65884           747.08051          1684.42120          1300.95132          7506.77811          2608.23732           891.36769          1873.38791          4096.91642          3531.78191           660.49667          4907.08666          1494.57333          2979.79825          1192.02051          3672.62650          3828.24870           494.79130          3583.71532          3912.32851          2722.23360          5215.04687           926.80701           818.11326          1288.37774          2478.63433           419.90809          8997.24230          3749.74950           687.87527          1852.22279          1786.40218          2039.98487           838.93862          1241.49844         12229.97546           696.85732          2491.64654          1446.88158           431.76258           843.81111          2645.96572          5509.27546          5771.10292          1558.52367          2700.85204          2760.12599          4489.39130           796.55163          1599.07753          2089.56548          1815.77996          5285.00412           664.12504          1278.78539          2862.35966           840.49154          4333.09899          2403.96462          6987.91094          2327.11560          1070.00132          1267.33996           642.91316          4944.86287          7409.90250          1915.05898           334.24034           355.53092           815.45930           894.16889          6299.79960          1553.87906          2225.28964          3375.28433          2594.89685          6017.10663          5424.02547           382.13585           714.58982           794.65633          1145.67918           677.54607          4398.67630          3917.54464          1375.28277           689.95912          1085.67000          2308.49908          3967.70594          2561.66987          2201.29188           853.00295          4584.18047          7650.51384           428.45462           705.48784          1885.31685          7842.48400          1993.34718          3092.96943          5026.82281           775.93459          1827.04931          4823.53799           595.31331          1435.52100          1076.27340          5807.04777           928.97091          1821.11808          2975.72356          5615.44940          4923.17884          6113.95051          4743.71451          4382.65989          1999.18248           967.93250          3434.56184         10075.15956           618.58371          2691.48573          2781.71438           327.32373          2744.23398          3378.11541          2569.72977           472.89158          4323.67615           842.18848          3566.60538          4406.59989          2076.31560           890.21709          3342.76428          3489.45671          5128.17296          6044.29164          5551.33260           681.17302           690.48848          1255.30410          5009.66934          1185.86208          2883.44019           913.51032           693.546