# vtk DataFile Version 3.0
Output from R2
ASCII
DATASET UNSTRUCTURED_GRID
POINTS       1414 double
     0.00000  2968.10000   0.
     1.54000  2966.60000   0.
     3.08000  2964.90000   0.
     4.61000  2964.10000   0.
     6.15000  2963.30000   0.
     7.69000  2962.60000   0.
     9.23000  2961.50000   0.
    10.76000  2960.70000   0.
    12.30000  2960.00000   0.
    13.84000  2959.30000   0.
    15.38000  2958.70000   0.
    16.91000  2958.10000   0.
    18.45000  2957.30000   0.
    19.99000  2956.60000   0.
    21.52000  2955.80000   0.
    23.06000  2955.00000   0.
    24.60000  2954.30000   0.
    26.14000  2953.50000   0.
    27.68000  2952.80000   0.
    29.21000  2951.90000   0.
    30.75000  2951.10000   0.
    32.29000  2950.20000   0.
    33.83000  2949.50000   0.
    35.36000  2948.70000   0.
    36.90000  2948.10000   0.
    38.44000  2947.30000   0.
    39.98000  2946.70000   0.
    41.51000  2946.10000   0.
    43.05000  2945.50000   0.
    44.59000  2945.10000   0.
    46.13000  2944.50000   0.
    47.66000  2944.10000   0.
    49.20000  2943.60000   0.
    50.74000  2943.40000   0.
    52.28000  2943.00000   0.
    53.81000  2942.50000   0.
    55.35000  2942.10000   0.
    56.89000  2941.60000   0.
    58.43000  2941.00000   0.
    59.96000  2940.60000   0.
    61.50000  2940.10000   0.
    63.04000  2939.50000   0.
    64.58000  2939.10000   0.
    66.11000  2939.20000   0.
    67.65000  2939.20000   0.
    69.19000  2939.10000   0.
    70.73000  2938.90000   0.
    72.26000  2938.60000   0.
    73.80000  2938.30000   0.
    75.34000  2938.50000   0.
    76.88000  2938.70000   0.
    78.41000  2938.60000   0.
    79.95000  2938.80000   0.
    81.49000  2938.90000   0.
    83.03000  2939.10000   0.
    84.56000  2939.10000   0.
     3.42000  2957.55000   0.
     8.97000  2954.51000   0.
    14.52000  2951.86000   0.
    20.07000  2949.38000   0.
    25.63000  2946.59000   0.
    31.18000  2943.67000   0.
    36.73000  2940.99000   0.
    42.28000  2938.62000   0.
    47.83000  2936.87000   0.
    53.39000  2935.46000   0.
    58.94000  2933.69000   0.
    64.49000  2931.95000   0.
    70.04000  2931.81000   0.
    75.60000  2931.36000   0.
    81.15000  2931.70000   0.
     0.51333  2967.60000   0.
     1.02667  2967.10000   0.
     2.05333  2966.03333   0.
     2.56667  2965.46667   0.
     3.59000  2964.63333   0.
     4.10000  2964.36667   0.
     5.12333  2963.83333   0.
     5.63667  2963.56667   0.
     6.66333  2963.06667   0.
     7.17667  2962.83333   0.
     8.20333  2962.23333   0.
     8.71667  2961.86667   0.
     9.74000  2961.23333   0.
    10.25000  2960.96667   0.
    11.27333  2960.46667   0.
    11.78667  2960.23333   0.
    12.81333  2959.76667   0.
    13.32667  2959.53333   0.
    14.35333  2959.10000   0.
    14.86667  2958.90000   0.
    15.89000  2958.50000   0.
    16.40000  2958.30000   0.
    17.42333  2957.83333   0.
    17.93667  2957.56667   0.
    18.96333  2957.06667   0.
    19.47667  2956.83333   0.
    20.50000  2956.33333   0.
    21.01000  2956.06667   0.
    22.03333  2955.53333   0.
    22.54667  2955.26667   0.
    23.57333  2954.76667   0.
    24.08667  2954.53333   0.
    25.11333  2954.03333   0.
    25.62667  2953.76667   0.
    26.65333  2953.26667   0.
    27.16667  2953.03333   0.
    28.19000  2952.50000   0.
    28.70000  2952.20000   0.
    29.72333  2951.63333   0.
    30.23667  2951.36667   0.
    31.26333  2950.80000   0.
    31.77667  2950.50000   0.
    32.80333  2949.96667   0.
    33.31667  2949.73333   0.
    34.34000  2949.23333   0.
    34.85000  2948.96667   0.
    35.87333  2948.50000   0.
    36.38667  2948.30000   0.
    37.41333  2947.83333   0.
    37.92667  2947.56667   0.
    38.95333  2947.10000   0.
    39.46667  2946.90000   0.
    40.49000  2946.50000   0.
    41.00000  2946.30000   0.
    42.02333  2945.90000   0.
    42.53667  2945.70000   0.
    43.56333  2945.36667   0.
    44.07667  2945.23333   0.
    45.10333  2944.90000   0.
    45.61667  2944.70000   0.
    46.64000  2944.36667   0.
    47.15000  2944.23333   0.
    48.17333  2943.93333   0.
    48.68667  2943.76667   0.
    49.71333  2943.53333   0.
    50.22667  2943.46667   0.
    51.25333  2943.26667   0.
    51.76667  2943.13333   0.
    52.79000  2942.83333   0.
    53.30000  2942.66667   0.
    54.32333  2942.36667   0.
    54.83667  2942.23333   0.
    55.86333  2941.93333   0.
    56.37667  2941.76667   0.
    57.40333  2941.40000   0.
    57.91667  2941.20000   0.
    58.94000  2940.86667   0.
    59.45000  2940.73333   0.
    60.47333  2940.43333   0.
    60.98667  2940.26667   0.
    62.01333  2939.90000   0.
    62.52667  2939.70000   0.
    63.55333  2939.36667   0.
    64.06667  2939.23333   0.
    65.34500  2939.15000   0.
    66.88000  2939.20000   0.
    68.42000  2939.15000   0.
    69.70333  2939.03333   0.
    70.21667  2938.96667   0.
    71.24000  2938.80000   0.
    71.75000  2938.70000   0.
    72.77333  2938.50000   0.
    73.28667  2938.40000   0.
    74.31333  2938.36667   0.
    74.82667  2938.43333   0.
    75.85333  2938.56667   0.
    76.36667  2938.63333   0.
    77.64500  2938.65000   0.
    78.92333  2938.66667   0.
    79.43667  2938.73333   0.
    80.72000  2938.85000   0.
    82.00333  2938.96667   0.
    82.51667  2939.03333   0.
    83.79500  2939.10000   0.
     0.08400  2959.57200   0.
     1.19600  2958.89800   0.
     2.30800  2958.22400   0.
     4.53000  2956.94200   0.
     5.64000  2956.33400   0.
     6.75000  2955.72600   0.
     7.86000  2955.11800   0.
    10.35750  2953.84750   0.
    11.74500  2953.18500   0.
    13.13250  2952.52250   0.
    15.90750  2951.24000   0.
    17.29500  2950.62000   0.
    18.68250  2950.00000   0.
    21.18200  2948.82200   0.
    22.29400  2948.26400   0.
    23.40600  2947.70600   0.
    24.51800  2947.14800   0.
    26.74000  2946.00600   0.
    27.85000  2945.42200   0.
    28.96000  2944.83800   0.
    30.07000  2944.25400   0.
    32.56750  2943.00000   0.
    33.95500  2942.33000   0.
    35.34250  2941.66000   0.
    38.11750  2940.39750   0.
    39.50500  2939.80500   0.
    40.89250  2939.21250   0.
    43.66750  2938.18250   0.
    45.05500  2937.74500   0.
    46.44250  2937.30750   0.
    49.22000  2936.51750   0.
    50.61000  2936.16500   0.
    52.00000  2935.81250   0.
    54.77750  2935.01750   0.
    56.16500  2934.57500   0.
    57.55250  2934.13250   0.
    60.32750  2933.25500   0.
    61.71500  2932.82000   0.
    63.10250  2932.38500   0.
    65.87750  2931.91500   0.
    67.26500  2931.88000   0.
    68.65250  2931.84500   0.
    71.43000  2931.69750   0.
    72.82000  2931.58500   0.
    74.21000  2931.47250   0.
    76.98750  2931.44500   0.
    78.37500  2931.53000   0.
    79.76250  2931.61500   0.
    82.53750  2931.75500   0.
    83.92500  2931.81000   0.
     6.60134  2937.05984   0.
    20.80435  2932.52560   0.
     3.78758  2946.36592   0.
    15.48523  2940.98228   0.
    29.30091  2934.50364   0.
    23.90594  2939.46561   0.
    40.87322  2931.62711   0.
     1.03219  2951.87344   0.
    10.83406  2946.32292   0.
    20.42668  2943.42459   0.
    48.80952  2930.83467   0.
    35.50309  2935.49258   0.
     7.54365  2949.73854   0.
    28.57967  2939.84283   0.
    15.90963  2945.83181   0.
    44.30452  2933.27820   0.
    -0.12722  2955.42655   0.
    24.47411  2943.04615   0.
     4.45051  2952.86019   0.
    40.01017  2935.22543   0.
    52.75593  2931.58993   0.
    13.75183  2934.27842   0.
    32.31862  2938.44653   0.
     0.40990  2931.04902   0.
    19.20708  2946.27332   0.
    57.19103  2930.55709   0.
    -0.97178  2947.27328   0.
    19.39705  2939.49643   0.
    11.08068  2950.12444   0.
    32.86215  2930.47012   0.
     7.41320  2941.82707   0.
    13.76382  2948.77946   0.
    27.17579  2942.79365   0.
     7.27112  2952.68663   0.
     2.71547  2954.94653   0.
    22.91159  2945.17994   0.
     2.00816  2941.86911   0.
    24.73355  2934.79062   0.
    47.86753  2934.00196   0.
    50.62083  2933.29089   0.
    60.15732  2930.28185   0.
    37.65425  2937.53830   0.
    44.64836  2929.77041   0.
    10.93416  2939.02064   0.
     4.26476  2949.76242   0.
    36.78915  2931.78219   0.
     7.36345  2946.13476   0.
    30.92470  2941.06806   0.
     6.19921  2931.10091   0.
    35.16618  2938.51604   0.
    16.36294  2929.87801   0.
    13.43632  2943.77014   0.
    42.64967  2935.50406   0.
    26.89596  2931.23775   0.
     1.59760  2936.73753   0.
    17.19200  2948.13905   0.
    -0.61497  2957.60981   0.
    26.49360  2937.36117   0.
     9.56799  2951.50953   0.
    17.55858  2943.77119   0.
    55.26825  2932.33039   0.
    22.03247  2936.46128   0.
    16.10828  2937.24515   0.
    22.48452  2941.40733   0.
    20.86327  2946.43955   0.
    29.71126  2937.35408   0.
    32.14062  2935.59882   0.
    45.26358  2935.44707   0.
    29.19256  2942.39482   0.
    25.22337  2944.48902   0.
    25.77440  2940.40763   0.
     5.12787  2951.33100   0.
     9.72036  2943.07255   0.
     0.63027  2944.64860   0.
     5.15669  2954.13690   0.
    33.80274  2940.56791   0.
     1.57076  2956.41210   0.
     9.31000  2947.97928   0.
     9.87726  2933.53233   0.
    53.60824  2932.85261   0.
    40.63972  2936.89193   0.
    13.47285  2946.23828   0.
    37.68088  2934.75035   0.
    46.32767  2931.88185   0.
    18.64740  2941.16071   0.
    13.09413  2950.32980   0.
    18.01744  2935.92389   0.
     0.55332  2948.73049   0.
     5.35766  2947.55011   0.
    42.44669  2933.52960   0.
    57.75733  2932.24094   0.
    23.68300  2931.83870   0.
    19.94397  2947.74183   0.
    61.81887  2931.15328   0.
[...]
POINT_DATA      1414
CELL_DATA      2568
SCALARS Resistivity(ohm.m) double 1
LOOKUP_TABLE default
          1258.61884          1724.25552          2326.39226          1205.06786           510.77819          2234.29463          1319.51960          1627.53486          1488.74365          2218.51049           766.11574          2244.51884           604.00261          2116.31006          2070.73319          2125.45356          1498.33269           461.70912           467.86263          2344.92106          1201.46626          2145.15956          1304.01393           534.34295          1734.54512           529.28794           246.44985          2191.23405          1994.71358          2337.68606           482.51138           530.99493          1631.34038           382.02797           362.88341          1774.87139           673.70874          1019.52679          1255.44124          1606.95803          1624.90903           659.45222           453.94576          2116.37060           319.92372           408.84974          2866.28606           835.33202           608.73079           891.89247          2432.43393          1694.49459          1091.88664          1466.29123          2436.20349           969.96811           350.05690          2296.24141           443.18315          1197.20215           532.77007          1945.11517           462.20682          2101.75089           250.08849          1417.65096          2061.52992          2130.63345           273.82803           741.91639           512.15446           732.28168          1840.62544           391.78533           316.30145          2964.86807          1559.65312           455.22896           334.76270          2628.79949          2458.44011          1586.55076           424.20174           426.12691          1869.45758           821.19101           322.33212          1878.98431           823.34786          1995.56245          1151.86406           347.61406          2267.02473           370.24005          1882.59517          1805.92604           584.56998          1376.56851          1974.85488          1086.03127          1621.81025           524.72432           620.94003           694.30573           987.85243          1528.37668           494.62892           992.59218          2316.87400          1482.33938           395.94314          1134.64330          2381.26311          1941.19488          1810.51735          1239.99074          1035.27183          1461.21219           442.91084           304.21378          2287.76091          1491.65698          3006.43025           725.42327           545.09211          1985.08181          2233.72359          3367.14327          2043.38164          1503.01603          2077.36588          1179.87495          1220.16971          2082.10501           836.20370          2820.39202           394.52127          1523.13307          1089.35387          1276.61471          1596.96477           498.61039           603.40786          1399.01673          1577.78029           548.57048           449.87336          1524.64884          1822.25397           533.13265          2393.27494          1725.77407           976.60750           643.34209          2189.54233           281.87510          1818.61926           386.84290          2004.46653          1255.51753          1307.23083           497.41853          2124.36092           453.95234          2281.43261           557.98302          1492.44869          1992.19367          1707.25376          1617.71859           676.83003           767.25294           687.53047           257.98332           405.38694           927.48773           838.70700          3867.82555          2562.87792          1252.69229          2194.84822          1594.61694          1976.22647           732.47778           529.63278          1035.92035           907.08616           643.73196           851.12015          2294.85729          1222.26219          2221.61793           593.73631          2473.22683           254.77431           503.14463          2395.73969          2145.13906          1339.95741           410.77775           280.60037           777.87303          1983.71010          1389.29915          2005.50850          1131.24659          4284.33934          2442.63305           383.42107          2369.13068          1324.83862           581.59687           416.56011           326.61167           538.02575          1285.76722          2139.52096           499.34905          1369.96008           509.23052           836.66141          1500.72752          1220.08164           338.03924           615.89662           649.35412           394.81536           543.32014          1222.38327           311.25679          1080.51192          2227.19580          1475.95217          2974.85727          2259.12468          1889.21568          2272.48807          1631.67619          1582.26467          1417.38459          2424.44324           626.15854          1025.03004           399.12232          2269.54247           257.15936          1901.00080           468.61464           465.03150          2252.74892           247.23177          2240.07306          1955.16028           684.25880          1941.66983          1033.44636           617.77148           723.10823           677.84645          2865.39867           590.25695          2309.13992           505.35830           426.90637           445.21535          1865.79728           350.25696          2271.52438           953.30190          2447.27247          1017.15047          2304.70001          2239.12187          2158.79170           456.82369          1660.41841          2388.78737           440.34166           641.27458           617.42573           447.90616          1313.98924           267.54288           986.09259           927.57588          2302.11263           464.55043          2321.40416           600.52182           493.92660           917.08520           300.46004          2138.54384           663.26860          1867.50894          2240.46286          1602.04641           514.98776           435.70652           639.74831           978.46912           440.65185          2356.23006          2379.67798           383.13701          1635.66118          1295.01331          1509.80080          1730.38657           399.43313           695.02113           585.66907           275.98761          2268.41605           744.69187           330.49438           473.80104          1220.97006          2688.45656           478.07243          3468.47639           381.38688           883.27811           472.68198           529.95624          1245.20867           452.74565          1305.17705          1124.92908          2815.83957          1795.73199          2177.05460           504.27876          1792.83193           331.12008           387.75499           584.46745           577.21303          3303.44976           534.93086          2009.23192           435.22511          2107.56522           451.48905           554.72587          1636.10733          1339.92660          1090.45851           452.18835          2097.85770           474.06069          2264.06911           792.60688           377.54747           457.47101          1953.92237           477.78641          1773.35222           299.93354           374.77698           789.69689          1399.45740           916.87693           517.33474          1316.68592           488.04982           359.15517          2300.98069          1983.71307          2536.60888           437.44712          1256.94961          1406.47162          1007.46378           277.48949          2525.53058           394.66251           474.10990           415.37882          1879.13486          1379.69010           451.99644          1592.50236          2222.12011           256.65972          1292.64423           554.51821          1539.45105           435.25454          1721.40922           713.31989           319.52134          1350.89332          1390.40907           453.08995           784.92659           567.12542          1457.32266          1586.65745          1077.85858           568.72635           626.94003          1436.88793          1328.11705          1421.35779           894.80050           534.77301           994.69423          2245.49709          1785.90683          1675.46052          2005.49111          1055.86094           541.10910          1113.90496          2381.18188           627.52736           791.13570           669.31139          1939.89353          1019.29350           367.67050          2075.52625          1621.18858          1424.64801           263.98111          1786.75761           560.64251          1367.60701           494.17169          1465.67151           486.56026           449.44803          2073.37787          1134.60774          1477.84372          1642.15741           616.49167          1693.46072          1372.49037          3883.18407           540.99124          1256.84476          2230.19741          1212.89237          1200.05492          1231.49522          1276.11973          4582.89930           875.53471          3510.74930          1684.82528          1672.95909          1263.05344          1874.95241           840.49634          1933.05522           966.34003          1553.25704           431.25506          1839.87926          1396.98482           917.08695          1471.41012          2227.37101           839.69320           852.74650          1290.75902          1858.43503          1836.02246           770.03908          1752.68632           911.75738           269.47795          1906.31538          4235.95181          1125.61813           423.99665          1731.99140           703.40455          1036.06545          2108.14434           500.53765           557.62288          2212.29494          2568.82341          1395.73734           361.97402           630.28311           778.49742          1341.43493          1246.99142          1144.78373          1384.50708           811.30745          1346.05999           768.78781          1169.52217          2384.26128          1697.34061           629.22506           324.90153           579.50724          1436.43773           778.43449          1373.00382          3872.16758          1362.31251           345.14921           474.29928          1424.05913          1343.06149           905.30622           390.85235          3277.52794          1292.87462           353.91731          3426.90447          2132.13520           412.46499          1545.45969          1325.99775          1176.86811          1325.88872          1187.18717           542.21833          1836.51943          1334.77646          1358.37301          1409.47252           694.25496          1985.31478           457.70719          1300.52261           577.01387           427.44899           715.99231          1831.91711          1230.76459           983.50304           445.40288           378.70644          1762.11859          1278.03860          4154.12476          4121.23964          3441.91612          2193.71166          2176.66956          2306.15079          3675.40272          5423.84660           677.33675          5177.81415           499.02188          1126.47975          1500.27749           715.39698          3019.72316          4523.92434          1386.51120           456.91369          2302.63532          2596.37151           813.09792           954.65444          1460.31207          5206.90862          1555.15325          2247.71697           939.34195           674.71153          1377.39256          1552.39175           535.34925          3445.72871           494.29383          1373.39325          5579.06724          4528.43897          1827.15367          4753.73247           288.33461           791.91398           479.27875          1993.34289          2572.95655          1791.29865          3441.73360          2035.04953          2618.47344           720.04363          1739.56205          1284.26771          2044.94436          8518.16695          3886.93287           937.61867          5812.36501          4374.16250           862.83292           634.32305          4446.66373          3012.25906          5189.54485          4944.33222          1437.40422           862.87319           604.87113           573.71646           753.98363          4548.38212          1632.30068          1032.08549          1634.95708           335.20075          1101.47350          2009.83340          3650.24221          1136.86469           936.56763           660.07905           894.62200          1692.75437          1479.65469           906.21407          3195.11836          3102.73927          3347.58352          3208.73580          7024.31463          3999.57998          2857.51089           562.04784          4362.19048          1379.57871          1616.57682           647.72608          1392.26454           938.33284           395.22361          6288.91339          6286.05759          1520.49310          1697.89408          2646.07598          2536.79856          3012.69363          3088.79347           911.03896          1383.92640           636.35406           834.57583           363.34656           488.68873           745.79604           603.31820          2273.83297          4131.11969          3401.27857          1467.54069          2412.58549          1500.06122          1629.44228          8262.94501          5663.00963          2029.74297           383.61164           572.72386          4731.49781           753.72920          3583.07857          4560.28119          1065.26358          2458.78165           766.44677           914.20811          1080.63070          2558.69376          2586.75936          2707.59647           634.24614           493.63504          1235.45007           361.48577           609.26110           476.67987          3663.86487          5407.72230           537.63421          3240.11815           978.21373          2719.40043          1297.54329           696.63214           694.79786           725.09807           644.31820          2126.97618           837.24382          1607.99004           768.58429          2454.29490          1870.51939          4236.39298          2518.18072           770.37378           607.45225           332.25193          2984.55736           806.14825           842.26062          1331.54908          2731.91162           691.91093           834.87252           529.29479          1368.50460          1417.22387          1817.76011          1331.30216           627.16685           786.52608           674.92040          2590.44705          1960.46512          1408.97352          7400.69704          1066.05958           980.18906           898.45529          1717.69353          2866.69874          1552.08412          1504.85050          1910.58171          2925.80087           567.61754          7415.41357          1632.22556          2591.42963           889.41612          1250.11198          4085.00133          2914.25864           828.82836          1218.32400          3394.40272           544.82358           540.16876          1317.22895          2595.43726          5705.80801          1619.65652          7662.91329          1468.74422          1815.19394          1513.98054          1261.89915           451.49707           760.85554          2639.61409           638.27567          4244.41313           631.24504          3265.50661           840.19392           890.72881          1759.81536          2263.73678          2763.58218          4669.98971          2890.25492          1600.52834          1864.62910          1363.85198          5671.62804          7459.40706          2055.31216          1131.68690          3005.26729           640.13802          1192.28844           888.96743          2963.44859          1214.79255          1051.89543           556.51803           601.51264          3797.55169          1129.27394           785.98648          5448.94808          3730.86185          2439.66995          1355.13388          7563.80628           829.54369          2761.88621          3099.44762          2345.80727          1273.10395          3168.31962          5166.59868          1702.02486           450.18482           716.76412           831.83200          2188.84170          1799.61278           683.80358           728.77380          5886.29570           821.07563          1193.97056          1908.82129          4392.98273          4578.02716           488.01807          1353.66878           794.03478          1046.35178          2214.18736           680.09368           855.46805          1651.32071           770.09696           610.94658           380.33981           833.82195          2797.77798           498.22337          2800.23397          1701.62865          2108.77913          1417.77619          2205.92019          1567.47954           384.93804          4451.89608          1664.43939          1998.85519          2050.49024          2275.47675          4971.44710          1134.81814          6540.36700           546.70189           662.22859          1597.03690          1228.67196          7830.23832          2498.60636           930.84290          1682.43263          3683.04350          3409.87807           543.01287          5051.53793          1632.29277          2842.44074          1118.19253          3608.82967          3894.00338           473.95794          3624.14510          3895.88823          2505.38505          5289.96012           820.58599           780.55300          1217.46616          2376.32867           531.55730          9691.19548          3829.37939           563.93380          2022.76163          1924.30623          2107.02529           770.95736          1209.15107         11415.09918           716.21200          2577.67095          1287.68423           507.04933           877.77904          2661.32773          5345.17188          6314.71032          1836.67261          2112.95301          2751.03842          5153.48792           753.26029          1446.46226          2286.14131          2023.17956          5223.43335           656.74602          1217.10552          2818.38388           775.16965          3887.75442          2635.15024          7810.06601          3103.74016          1400.53765          1127.89266           580.15891          4829.51051          8074.35345          2564.82305           255.74364           343.53105           924.04479           907.80631          6913.71461          1471.29144          1845.70084          3058.07166          2631.02352          5980.25273          5671.07517           356.77936           560.99827           706.25702          1177.75776           664.93395          4416.93693          4378.89833          1624.43659           762.31764          1044.77580          2555.95066          4113.87795          2786.84785          2201.60673           955.62048          4204.93823          7672.24831           512.14402           658.37865          1764.30101          7847.65146          2377.29485          2960.46090          4799.43954           848.30218          2013.03812          4435.09182           531.16192          1455.78542          1067.55472          6253.11385           972.17470          1788.89323          2998.80021          4816.20857          5564.61261          7004.22155          4737.57984          4656.54798          1895.79755           930.38730          3436.44401         10898.34402           670.01252          2572.48515          2934.43760           274.15011          2473.92953          3711.75332          2756.47701           458.45841          4463.12676           806.67310          3479.26296          4094.47673          1946.36325           744.24642          3047.28940          3754.86951          4835.61787          6499.42959          6506.60933           597.03397           683.95382          1364.20781          4461.78438          1312.61292          2855.61849          1013.32637           613.293