# vtk DataFile Version 3.0
Output from R2
ASCII
DATASET UNSTRUCTURED_GRID
POINTS       1414 double
     0.00000  2968.10000   0.
     1.54000  2966.60000   0.
     3.08000  2964.90000   0.
     4.61000  2964.10000   0.
     6.15000  2963.30000   0.
     7.69000  2962.60000   0.
     9.23000  2961.50000   0.
    10.76000  2960.70000   0.
    12.30000  2960.00000   0.
    13.84000  2959.30000   0.
    15.38000  2958.70000   0.
    16.91000  2958.10000   0.
    18.45000  2957.30000   0.
    19.99000  2956.60000   0.
    21.52000  2955.80000   0.
    23.06000  2955.00000   0.
    24.60000  2954.30000   0.
    26.14000  2953.50000   0.
    27.68000  2952.80000   0.
    29.21000  2951.90000   0.
    30.75000  2951.10000   0.
    32.29000  2950.20000   0.
    33.83000  2949.50000   0.
    35.36000  2948.70000   0.
    36.90000  2948.10000   0.
    38.44000  2947.30000   0.
    39.98000  2946.70000   0.
    41.51000  2946.10000   0.
    43.05000  2945.50000   0.
    44.59000  2945.10000   0.
    46.13000  2944.50000   0.
    47.66000  2944.10000   0.
    49.20000  2943.60000   0.
    50.74000  2943.40000   0.
    52.28000  2943.00000   0.
    53.81000  2942.50000   0.
    55.35000  2942.10000   0.
    56.89000  2941.60000   0.
    58.43000  2941.00000   0.
    59.96000  2940.60000   0.
    61.50000  2940.10000   0.
    63.04000  2939.50000   0.
    64.58000  2939.10000   0.
    66.11000  2939.20000   0.
    67.65000  2939.20000   0.
    69.19000  2939.10000   0.
    70.73000  2938.90000   0.
    72.26000  2938.60000   0.
    73.80000  2938.30000   0.
    75.34000  2938.50000   0.
    76.88000  2938.70000   0.
    78.41000  2938.60000   0.
    79.95000  2938.80000   0.
    81.49000  2938.90000   0.
    83.03000  2939.10000   0.
    84.56000  2939.10000   0.
     3.42000  2957.55000   0.
     8.97000  2954.51000   0.
    14.52000  2951.86000   0.
    20.07000  2949.38000   0.
    25.63000  2946.59000   0.
    31.18000  2943.67000   0.
    36.73000  2940.99000   0.
    42.28000  2938.62000   0.
    47.83000  2936.87000   0.
    53.39000  2935.46000   0.
    58.94000  2933.69000   0.
    64.49000  2931.95000   0.
    70.04000  2931.81000   0.
    75.60000  2931.36000   0.
    81.15000  2931.70000   0.
     0.51333  2967.60000   0.
     1.02667  2967.10000   0.
     2.05333  2966.03333   0.
     2.56667  2965.46667   0.
     3.59000  2964.63333   0.
     4.10000  2964.36667   0.
     5.12333  2963.83333   0.
     5.63667  2963.56667   0.
     6.66333  2963.06667   0.
     7.17667  2962.83333   0.
     8.20333  2962.23333   0.
     8.71667  2961.86667   0.
     9.74000  2961.23333   0.
    10.25000  2960.96667   0.
    11.27333  2960.46667   0.
    11.78667  2960.23333   0.
    12.81333  2959.76667   0.
    13.32667  2959.53333   0.
    14.35333  2959.10000   0.
    14.86667  2958.90000   0.
    15.89000  2958.50000   0.
    16.40000  2958.30000   0.
    17.42333  2957.83333   0.
    17.93667  2957.56667   0.
    18.96333  2957.06667   0.
    19.47667  2956.83333   0.
    20.50000  2956.33333   0.
    21.01000  2956.06667   0.
    22.03333  2955.53333   0.
    22.54667  2955.26667   0.
    23.57333  2954.76667   0.
    24.08667  2954.53333   0.
    25.11333  2954.03333   0.
    25.62667  2953.76667   0.
    26.65333  2953.26667   0.
    27.16667  2953.03333   0.
    28.19000  2952.50000   0.
    28.70000  2952.20000   0.
    29.72333  2951.63333   0.
    30.23667  2951.36667   0.
    31.26333  2950.80000   0.
    31.77667  2950.50000   0.
    32.80333  2949.96667   0.
    33.31667  2949.73333   0.
    34.34000  2949.23333   0.
    34.85000  2948.96667   0.
    35.87333  2948.50000   0.
    36.38667  2948.30000   0.
    37.41333  2947.83333   0.
    37.92667  2947.56667   0.
    38.95333  2947.10000   0.
    39.46667  2946.90000   0.
    40.49000  2946.50000   0.
    41.00000  2946.30000   0.
    42.02333  2945.90000   0.
    42.53667  2945.70000   0.
    43.56333  2945.36667   0.
    44.07667  2945.23333   0.
    45.10333  2944.90000   0.
    45.61667  2944.70000   0.
    46.64000  2944.36667   0.
    47.15000  2944.23333   0.
    48.17333  2943.93333   0.
    48.68667  2943.76667   0.
    49.71333  2943.53333   0.
    50.22667  2943.46667   0.
    51.25333  2943.26667   0.
    51.76667  2943.13333   0.
    52.79000  2942.83333   0.
    53.30000  2942.66667   0.
    54.32333  2942.36667   0.
    54.83667  2942.23333   0.
    55.86333  2941.93333   0.
    56.37667  2941.76667   0.
    57.40333  2941.40000   0.
    57.91667  2941.20000   0.
    58.94000  2940.86667   0.
    59.45000  2940.73333   0.
    60.47333  2940.43333   0.
    60.98667  2940.26667   0.
    62.01333  2939.90000   0.
    62.52667  2939.70000   0.
    63.55333  2939.36667   0.
    64.06667  2939.23333   0.
    65.34500  2939.15000   0.
    66.88000  2939.20000   0.
    68.42000  2939.15000   0.
    69.70333  2939.03333   0.
    70.21667  2938.96667   0.
    71.24000  2938.80000   0.
    71.75000  2938.70000   0.
    72.77333  2938.50000   0.
    73.28667  2938.40000   0.
    74.31333  2938.36667   0.
    74.82667  2938.43333   0.
    75.85333  2938.56667   0.
    76.36667  2938.63333   0.
    77.64500  2938.65000   0.
    78.92333  2938.66667   0.
    79.43667  2938.73333   0.
    80.72000  2938.85000   0.
    82.00333  2938.96667   0.
    82.51667  2939.03333   0.
    83.79500  2939.10000   0.
     0.08400  2959.57200   0.
     1.19600  2958.89800   0.
     2.30800  2958.22400   0.
     4.53000  2956.94200   0.
     5.64000  2956.33400   0.
     6.75000  2955.72600   0.
     7.86000  2955.11800   0.
    10.35750  2953.84750   0.
    11.74500  2953.18500   0.
    13.13250  2952.52250   0.
    15.90750  2951.24000   0.
    17.29500  2950.62000   0.
    18.68250  2950.00000   0.
    21.18200  2948.82200   0.
    22.29400  2948.26400   0.
    23.40600  2947.70600   0.
    24.51800  2947.14800   0.
    26.74000  2946.00600   0.
    27.85000  2945.42200   0.
    28.96000  2944.83800   0.
    30.07000  2944.25400   0.
    32.56750  2943.00000   0.
    33.95500  2942.33000   0.
    35.34250  2941.66000   0.
    38.11750  2940.39750   0.
    39.50500  2939.80500   0.
    40.89250  2939.21250   0.
    43.66750  2938.18250   0.
    45.05500  2937.74500   0.
    46.44250  2937.30750   0.
    49.22000  2936.51750   0.
    50.61000  2936.16500   0.
    52.00000  2935.81250   0.
    54.77750  2935.01750   0.
    56.16500  2934.57500   0.
    57.55250  2934.13250   0.
    60.32750  2933.25500   0.
    61.71500  2932.82000   0.
    63.10250  2932.38500   0.
    65.87750  2931.91500   0.
    67.26500  2931.88000   0.
    68.65250  2931.84500   0.
    71.43000  2931.69750   0.
    72.82000  2931.58500   0.
    74.21000  2931.47250   0.
    76.98750  2931.44500   0.
    78.37500  2931.53000   0.
    79.76250  2931.61500   0.
    82.53750  2931.75500   0.
    83.92500  2931.81000   0.
     6.60134  2937.05984   0.
    20.80435  2932.52560   0.
     3.78758  2946.36592   0.
    15.48523  2940.98228   0.
    29.30091  2934.50364   0.
    23.90594  2939.46561   0.
    40.87322  2931.62711   0.
     1.03219  2951.87344   0.
    10.83406  2946.32292   0.
    20.42668  2943.42459   0.
    48.80952  2930.83467   0.
    35.50309  2935.49258   0.
     7.54365  2949.73854   0.
    28.57967  2939.84283   0.
    15.90963  2945.83181   0.
    44.30452  2933.27820   0.
    -0.12722  2955.42655   0.
    24.47411  2943.04615   0.
     4.45051  2952.86019   0.
    40.01017  2935.22543   0.
    52.75593  2931.58993   0.
    13.75183  2934.27842   0.
    32.31862  2938.44653   0.
     0.40990  2931.04902   0.
    19.20708  2946.27332   0.
    57.19103  2930.55709   0.
    -0.97178  2947.27328   0.
    19.39705  2939.49643   0.
    11.08068  2950.12444   0.
    32.86215  2930.47012   0.
     7.41320  2941.82707   0.
    13.76382  2948.77946   0.
    27.17579  2942.79365   0.
     7.27112  2952.68663   0.
     2.71547  2954.94653   0.
    22.91159  2945.17994   0.
     2.00816  2941.86911   0.
    24.73355  2934.79062   0.
    47.86753  2934.00196   0.
    50.62083  2933.29089   0.
    60.15732  2930.28185   0.
    37.65425  2937.53830   0.
    44.64836  2929.77041   0.
    10.93416  2939.02064   0.
     4.26476  2949.76242   0.
    36.78915  2931.78219   0.
     7.36345  2946.13476   0.
    30.92470  2941.06806   0.
     6.19921  2931.10091   0.
    35.16618  2938.51604   0.
    16.36294  2929.87801   0.
    13.43632  2943.77014   0.
    42.64967  2935.50406   0.
    26.89596  2931.23775   0.
     1.59760  2936.73753   0.
    17.19200  2948.13905   0.
    -0.61497  2957.60981   0.
    26.49360  2937.36117   0.
     9.56799  2951.50953   0.
    17.55858  2943.77119   0.
    55.26825  2932.33039   0.
    22.03247  2936.46128   0.
    16.10828  2937.24515   0.
    22.48452  2941.40733   0.
    20.86327  2946.43955   0.
    29.71126  2937.35408   0.
    32.14062  2935.59882   0.
    45.26358  2935.44707   0.
    29.19256  2942.39482   0.
    25.22337  2944.48902   0.
    25.77440  2940.40763   0.
     5.12787  2951.33100   0.
     9.72036  2943.07255   0.
     0.63027  2944.64860   0.
     5.15669  2954.13690   0.
    33.80274  2940.56791   0.
     1.57076  2956.41210   0.
     9.31000  2947.97928   0.
     9.87726  2933.53233   0.
    53.60824  2932.85261   0.
    40.63972  2936.89193   0.
    13.47285  2946.23828   0.
    37.68088  2934.75035   0.
    46.32767  2931.88185   0.
    18.64740  2941.16071   0.
    13.09413  2950.32980   0.
    18.01744  2935.92389   0.
     0.55332  2948.73049   0.
     5.35766  2947.55011   0.
    42.44669  2933.52960   0.
    57.75733  2932.24094   0.
    23.68300  2931.83870   0.
    19.94397  2947.74183   0.
    61.81887  2931.15328   0.
[...]
POINT_DATA      1414
CELL_DATA      2568
SCALARS Resistivity(ohm.m) double 1
LOOKUP_TABLE default
          1283.26911          1843.15144          2350.34731          1226.21857           476.29366          2237.95947          1302.89992          1584.74817          1604.76818          2292.28892           754.73293          2302.32494           548.38432          2143.11217          2108.20595          2137.14681          1621.12101           442.07434           458.24423          2282.14537          1200.86131          2192.52550          1378.18094           591.13353          1851.67503           506.23103           258.58327          2211.14463          2058.39098          2371.61838           471.59204           510.73576          1752.92353           393.11128           373.56091          1760.50589           714.39190          1018.28829          1320.65619          1590.71200          1740.77975           652.70429           465.31453          2148.60941           339.49981           411.88564          2852.64870           821.14784           573.54595           919.38553          2445.18970          1813.10263          1066.63540          1588.65356          2416.31444           971.89654           367.55755          2328.66033           440.66023          1174.27583           486.08478          2011.28013           436.51324          2124.33764           267.68587          1527.65676          2118.98058          2215.24797           291.67396           750.72179           482.57574           765.40296          1930.50343           409.20116           309.24919          2839.07274          1622.97375           440.70144           323.71677          2635.35796          2476.89132          1537.28978           428.43243           420.73640          1955.60422           829.44858           340.78770          1964.39966           850.41753          2091.83133          1153.94960           366.34471          2279.56315           350.61577          1880.75805          1903.73767           542.40521          1360.95075          2033.82874          1089.03692          1719.46100           499.81894           611.09695           681.98224          1039.89625          1650.21907           469.49434           973.39959          2309.52317          1471.03809           380.18922          1119.77298          2361.44378          2029.60540          1906.74771          1318.80911          1028.96594          1578.12824           449.53887           321.34385          2239.56951          1564.85720          2924.10080           714.34528           513.16800          2060.11546          2245.08275          3228.07381          2098.69196          1467.59992          2156.64980          1203.98609          1288.80185          2112.79180           822.64637          2718.19753           372.48143          1647.97439          1096.43488          1365.16404          1713.13892           477.84392           595.89693          1365.34645          1702.69073           531.35579           440.55376          1622.12613          1927.39756           541.74492          2422.15291          1837.87471           962.51019           659.28711          2180.78103           280.74475          1786.68130           398.56595          2061.33631          1335.87983          1279.20536           481.36406          2168.01370           446.36012          2330.17812           493.73574          1469.33317          1978.53652          1816.94151          1743.53271           680.15887           754.27311           681.87525           272.79510           412.61785           914.97250           845.94644          3575.83982          2509.82932          1245.52289          2184.81307          1546.73207          2069.11301           725.66839           494.80751          1043.21356           913.71094           641.82942           844.31058          2294.71786          1285.81323          2232.60167           597.36302          2472.82849           272.26180           504.23576          2403.41322          2223.97141          1378.82964           418.98479           279.41986           795.35991          2051.94813          1499.20646          1993.44931          1143.62630          3924.97264          2451.45558           396.27589          2413.27126          1409.77059           563.81621           420.03201           341.47847           576.36706          1321.52426          2164.44829           476.69599          1399.02844           499.71870           850.09848          1505.50605          1218.86831           348.85456           589.86494           655.99069           372.30312           548.26094          1292.35675           339.96136          1052.74047          2232.56717          1562.16459          2848.47005          2235.95939          1877.14680          2260.57304          1594.69236          1593.47287          1502.24223          2410.94084           600.27411          1033.69148           416.28827          2276.11861           262.61901          2007.15504           454.56461           432.97989          2319.89193           254.97852          2260.80517          1976.16357           687.94346          2033.34900          1022.84057           594.84017           726.02501           660.05496          2770.00295           515.35630          2363.85439           472.97922           441.10802           437.45816          1874.99099           365.77951          2272.70400           961.58829          2447.04530           993.37516          2348.66340          2256.81056          2172.49244           444.48861          1768.42560          2424.32520           441.48850           670.76624           610.20491           449.43361          1413.95064           275.78773           979.56721           908.51825          2316.93282           466.89606          2279.67732           567.39681           457.45471           912.86839           304.76650          2153.27053           672.90607          1971.03267          2212.77871          1638.54433           503.43181           451.73174           640.02641           990.75790           433.24020          2344.58318          2361.26776           401.27797          1756.43193          1382.45434          1623.82873          1838.90901           373.16556           700.95743           525.23487           295.76404          2246.88997           744.49342           336.62062           459.85681          1180.24036          2627.58778           454.88057          3246.62153           404.67612           932.89698           440.19755           526.02624          1301.78552           442.00324          1403.06853          1140.76072          2732.96602          1907.88847          2222.46319           515.28840          1808.44112           356.94915           400.22254           584.85743           551.39451          3117.80080           560.75577          2061.88132           404.13549          2168.82434           458.02803           542.44992          1759.06776          1334.02236          1140.79467           443.98390          2132.14077           439.49503          2266.40298           796.73069           375.52399           455.33268          2027.13146           464.42517          1815.71272           321.15312           390.51072           792.80062          1514.16424           898.91470           530.84836          1411.59186           503.29550           363.25500          2259.14418          2029.91422          2497.30634           438.09084          1340.99969          1507.09883           993.36926           301.20573          2487.18236           410.66441           465.59980           423.17273          1968.62739          1470.86214           421.87293          1713.18896          2224.01927           260.63050          1386.09918           517.10287          1504.85072           433.22421          1718.05236           723.41651           341.47562          1457.90917          1375.49081           417.50151           777.13725           579.82897          1407.91091          1712.71643          1049.31448           503.58668           637.90661          1505.12085          1423.63518          1476.45053           895.77388           524.96559           999.44418          2228.49859          1865.92768          1723.73146          2056.05730          1026.88583           596.02014          1113.85918          2350.36448           640.27781           835.24640           651.36049          1999.12594           993.18172           383.02110          2108.59935          1617.24614          1454.09660           284.76080          1753.02929           511.03539          1470.17231           482.84928          1510.11965           466.20175           415.11265          2068.35448          1124.90832          1583.00188          1707.38934           591.67244          1808.44421          1330.75683          3606.38081           590.50516          1300.07018          2217.86537          1252.05490          1185.61143          1308.49246          1329.01556          4224.57834           878.76775          3306.42581          1767.11046          1626.38051          1228.59439          1847.25505           833.29954          2002.94566           972.39603          1535.13244           428.65932          1950.22579          1471.95945           922.69066          1419.59659          2281.90107           836.43310           841.10246          1245.79636          1835.24012          1897.62131           808.15531          1871.25897           902.78684           291.00308          2010.73882          3908.26048          1092.43658           434.51832          1714.32289           686.80574          1050.36408          2102.74191           497.96853           537.50741          2280.19912          2603.62512          1347.81635           355.11528           659.87739           767.70934          1411.09140          1207.15943          1165.12500          1494.58779           814.05375          1449.66013           768.24260          1166.55040          2378.84457          1819.44722           615.80592           321.49378           530.67604          1450.43457           775.41681          1381.93076          3619.37981          1413.41670           363.77157           469.34981          1381.71112          1361.18507           893.33304           406.83251          3097.11926          1380.75799           371.66383          3237.65006          2144.26826           416.90412          1593.82811          1384.29832          1190.60490          1288.30359          1195.06905           551.15633          1827.84778          1438.65732          1467.53882          1359.15034           694.08226          1995.67911           444.22262          1256.24001           588.20821           425.81324           714.27189          1924.72153          1238.36516           991.09088           439.03343           395.95508          1868.19929          1294.95486          4098.40176          4173.28450          3499.32626          2160.61584          2125.79104          2209.58383          3659.92340          5211.66259           661.34205          4780.94671           444.43268          1133.48566          1461.46753           666.05488          3763.24929          4587.72436          1335.84703           430.20091          2071.57615          2780.82994           862.91335           889.18096          1449.20880          4957.76241          1579.20770          2515.69199           918.99367           619.28995          1396.59399          1655.56551           460.06395          3543.16693           501.17383          1484.35547          5509.89683          4563.12736          1959.39158          4757.13928           289.74853           874.65440           474.99441          1910.03864          2650.02876          1765.63059          3190.48796          1912.24096          2687.99996           807.26176          1602.64297          1298.78544          1833.96789          8164.75141          3974.77869          1022.02134          5364.60906          3962.31766           866.00173           663.44069          4564.78834          2897.29212          5081.87521          4823.80642          1563.41735           807.49883           616.31524           573.16022           778.43581          4547.09121          1660.65071          1030.44647          1647.46849           329.94080          1205.37808          1882.19218          3675.93675          1185.86701           885.03384           700.78551           891.40332          1629.10026          1592.54865           940.70333          3350.69398          2974.02846          3355.31089          3364.52943          6616.52479          3978.66939          2761.01971           550.10615          4576.26286          1324.38625          1590.78613           635.57624          1446.56841           885.61141           383.65019          6003.34574          5471.25371          1497.58124          1712.52989          2818.48696          2355.02619          3405.00372          2993.75655           879.80036          1307.63275           640.63317           779.96855           395.39560           500.95931           781.19195           655.38337          2093.04946          4076.66585          3492.28088          1466.47466          2305.10432          1496.08168          1671.19519          7935.89872          5215.03341          1951.23890           404.12773           580.89512          4738.56249           695.08933          4155.38366          4588.43621          1158.21320          2431.34242           746.47285           856.36365          1178.85880          2387.72210          2465.91207          2810.44254           641.23686           496.21100          1397.98614           357.99636           677.56345           428.40009          3842.23551          5258.59747           471.63622          3063.00985           885.89792          2717.59923          1510.99944           643.16485           651.31756           685.74163           608.13370          2072.59250           795.46853          1528.20567           722.81218          2635.78429          1902.32400          4109.14447          2766.49328           709.48864           643.79096           330.74288          3125.50476           824.73319           805.07969          1417.88929          2675.71754           661.80468           879.68336           573.43020          1395.56962          1256.86392          1503.13497          1354.69913           610.09250           815.41964           769.49355          2657.50910          2075.46632          1246.79758          7264.95027          1146.10131           848.12744           968.02052          1566.53785          2690.31209          1550.71877          1632.93999          1663.78416          2875.52126           653.32500          7390.33385          1461.63912          2703.72563           813.41543          1401.32090          4260.78893          2810.73608           812.88893          1189.11619          3547.50463           482.48525           566.31235          1301.90486          2822.94194          5458.07550          1600.26521          7184.51158          1196.63459          1798.20627          1511.76372          1470.00444           495.04361           842.87108          2856.10078           683.33660          4196.96761           636.63455          3467.09061           857.86119           706.58422          1466.40201          2217.43444          3025.13910          4653.88006          2806.43020          1784.99805          1897.66336          1319.20637          5796.59817          7238.74637          2068.47373          1082.70599          2902.89191           609.68235          1347.29761           983.55735          2854.01539          1393.50081          1053.36706           571.46196           599.60710          3900.08196           932.76432           799.55405          5679.18914          3831.10300          2501.08799          1483.07904          7628.31060           918.86282          2598.38499          3053.81158          2377.82031          1041.35754          3150.55159          5152.64259          1852.19808           431.71145           793.92395           920.09282          1963.36441          1856.55389           627.41136           698.09434          6294.59421           853.87694          1115.73706          2044.02387          4482.97006          4626.31781           494.29772          1424.25899           832.04309          1145.04921          2057.26701           688.57949           867.54865          1404.31795           818.31382           613.09219           417.14743           768.15955          2977.41085           494.97949          2906.09120          1782.47633          2094.65866          1459.90322          1875.15265          1591.44493           414.65640          3949.75219          1745.98940          2018.47886          2006.90169          2299.12913          4870.84458          1131.49110          6017.67826           620.53121           686.54661          1679.78220          1427.25354          7476.37405          2529.76733           914.18514          1812.08975          3988.28524          3457.20885           608.99072          5332.94308          1575.00359          2989.31416          1183.62592          3546.52663          3842.00917           476.47328          3494.22142          3719.57363          2597.90696          5111.13633           868.30594           742.58502          1406.15789          2388.14326           466.20475          8967.84708          3746.51525           634.32739          1755.38109          1818.91314          2160.23930           783.75795          1362.96448         11973.88368           667.06241          2456.53471          1390.35190           470.05123           851.48621          2728.30050          5516.47443          6101.05355          1668.44065          2517.22306          2706.34630          4710.00716           730.28961          1547.27598          2216.48197          1724.91042          5272.30335           651.58177          1403.05837          2993.21090           785.46493          4321.70267          2455.80883          7219.61748          2533.07772          1169.36428          1227.00673           589.02451          4704.99692          7524.12536          2048.23380           314.41607           377.01681           778.38323           826.84391          6451.61489          1640.46044          2199.02982          3273.87297          2467.99898          5891.64804          5473.57935           392.50544           666.76355           730.90198          1195.54236           660.47820          4312.20199          4012.03683          1489.89050           670.05166          1117.48251          2294.95886          3810.15614          2484.14700          2241.36842           804.65273          4337.06616          7508.63361           463.37928           640.12281          1834.89894          7660.22012          1929.22299          3061.24063          4876.98923           751.29972          1744.10162          4567.79462           542.14869          1453.52995           967.66212          5869.27367           944.18258          1805.44660          2831.82671          5476.65539          5195.34921          6402.18452          4749.99241          4702.75092          1992.94183           923.31897          3335.85620          9905.70270           648.11850          2741.89200          2794.79894           280.94516          2706.37750          3545.04000          2689.64101           476.66144          4364.83887           778.87885          3575.78375          4391.78072          2065.90953           788.29360          3341.40712          3455.54188          4956.56711          6168.66892          5913.25118           634.71779           677.98649          1278.76499          4896.35502          1094.15825          2901.38521           844.30515           625.757